xx                                                                      
Freq      RHF                                                         STO-3G              
Number of atoms                            I                3
Info1-9                                    I   N=           9
          19          19        1002           0           0         101
           6           1           2
Charge                                     I                0
Multiplicity                               I                1
Number of electrons                        I               10
Number of alpha electrons                  I                5
Number of beta electrons                   I                5
Number of basis functions                  I                7
Number of independent functions            I                7
Number of point charges in /Mol/           I                0
Number of translation vectors              I                0
Atomic numbers                             I   N=           3
           8           1           1
Nuclear charges                            R   N=           3
  8.00000000E+00  1.00000000E+00  1.00000000E+00
Current cartesian coordinates              R   N=           9
  0.00000000E+00  0.00000000E+00  0.00000000E+00  1.43256482E+00  0.00000000E+00
  1.20149210E+00 -1.43256482E+00  0.00000000E+00  1.20149210E+00
Force Field                                I                0
Int Atom Types                             I   N=           3
           0           0           0
MM charges                                 R   N=           3
  0.00000000E+00  0.00000000E+00  0.00000000E+00
Integer atomic weights                     I   N=           3
          16           1           1
Real atomic weights                        R   N=           3
  1.59949146E+01  1.00782504E+00  1.00782504E+00
Atom fragment info                         I   N=           3
           0           0           0
Atom residue num                           I   N=           3
           0           0           0
Nuclear spins                              I   N=           3
           0           1           1
Nuclear ZEff                               R   N=           3
 -5.60000000E+00 -1.00000000E+00 -1.00000000E+00
Nuclear QMom                               R   N=           3
  0.00000000E+00  0.00000000E+00  0.00000000E+00
Nuclear GFac                               R   N=           3
  0.00000000E+00  2.79284600E+00  2.79284600E+00
MicOpt                                     I   N=           3
          -1          -1          -1
Number of contracted shells                I                4
Number of primitive shells                 I               12
Pure/Cartesian d shells                    I                0
Pure/Cartesian f shells                    I                0
Highest angular momentum                   I                1
Largest degree of contraction              I                3
Shell types                                I   N=           4
           0          -1           0           0
Number of primitives per shell             I   N=           4
           3           3           3           3
Shell to atom map                          I   N=           4
           1           1           2           3
Primitive exponents                        R   N=          12
  1.30709321E+02  2.38088661E+01  6.44360831E+00  5.03315132E+00  1.16959612E+00
  3.80388960E-01  3.42525091E+00  6.23913730E-01  1.68855404E-01  3.42525091E+00
  6.23913730E-01  1.68855404E-01
Contraction coefficients                   R   N=          12
  1.54328967E-01  5.35328142E-01  4.44634542E-01 -9.99672292E-02  3.99512826E-01
  7.00115469E-01  1.54328967E-01  5.35328142E-01  4.44634542E-01  1.54328967E-01
  5.35328142E-01  4.44634542E-01
P(S=P) Contraction coefficients            R   N=          12
  0.00000000E+00  0.00000000E+00  0.00000000E+00  1.55916275E-01  6.07683719E-01
  3.91957393E-01  0.00000000E+00  0.00000000E+00  0.00000000E+00  0.00000000E+00
  0.00000000E+00  0.00000000E+00
Coordinates of each shell                  R   N=          12
  0.00000000E+00  0.00000000E+00  0.00000000E+00  0.00000000E+00  0.00000000E+00
  0.00000000E+00  1.43256482E+00  0.00000000E+00  1.20149210E+00 -1.43256482E+00
  0.00000000E+00  1.20149210E+00
Constraint Structure                       R   N=           9
  0.00000000E+00  0.00000000E+00  0.00000000E+00  1.43256482E+00  0.00000000E+00
  1.20149210E+00 -1.43256482E+00  0.00000000E+00  1.20149210E+00
Num ILSW                                   I              100
ILSW                                       I   N=         100
           0           0           0           0           2           0
           0           0           3           0           0          -1
           5           0           0           0           0           0
           0           0           1           0           1           0
           1           1           0           0           0           0
           0           0      100000           0          -1           0
           0           0           0           0           0           0
           0           0           0           1           0           0
           0           0           1           0           0           0
           0           0           4          40           0           0
           0           0           0           0           0           0
           0           0           0           0           0           0
           0           0           0           0           0           0
           0           0           0           0           0           0
           0           0           0           0           0           0
           0           0           0           0           0           0
           0           0           0           0
Num RLSW                                   I               40
RLSW                                       R   N=          40
  1.00000000E+00  1.00000000E+00  1.00000000E+00  1.00000000E+00  1.00000000E+00
  0.00000000E+00  0.00000000E+00  1.00000000E+00  0.00000000E+00  0.00000000E+00
  0.00000000E+00  0.00000000E+00  1.00000000E+00  0.00000000E+00  0.00000000E+00
  0.00000000E+00  0.00000000E+00  1.00000000E+00  0.00000000E+00  0.00000000E+00
  0.00000000E+00  0.00000000E+00  1.00000000E+00  0.00000000E+00  0.00000000E+00
  0.00000000E+00  0.00000000E+00  1.00000000E+00  0.00000000E+00  0.00000000E+00
  0.00000000E+00  0.00000000E+00  1.00000000E+00  0.00000000E+00  0.00000000E+00
  0.00000000E+00  0.00000000E+00  0.00000000E+00  1.00000000E+00  1.00000000E+00
MxBond                                     I                2
NBond                                      I   N=           3
           2           1           1
IBond                                      I   N=           6
           2           3           1           0           1           0
RBond                                      R   N=           6
  1.00000000E+00  1.00000000E+00  1.00000000E+00  0.00000000E+00  1.00000000E+00
  0.00000000E+00
Virial Ratio                               R      2.006002415661444E+00
SCF Energy                                 R     -7.496590121709318E+01
Total Energy                               R     -7.496590121709318E+01
RMS Force                                  R      1.231195726199042E-08
RMS Density                                R      2.234474113402522E-12
External E-field                           R   N=          35
  0.00000000E+00  0.00000000E+00  0.00000000E+00  0.00000000E+00  0.00000000E+00
  0.00000000E+00  0.00000000E+00  0.00000000E+00  0.00000000E+00  0.00000000E+00
  0.00000000E+00  0.00000000E+00  0.00000000E+00  0.00000000E+00  0.00000000E+00
  0.00000000E+00  0.00000000E+00  0.00000000E+00  0.00000000E+00  0.00000000E+00
  0.00000000E+00  0.00000000E+00  0.00000000E+00  0.00000000E+00  0.00000000E+00
  0.00000000E+00  0.00000000E+00  0.00000000E+00  0.00000000E+00  0.00000000E+00
  0.00000000E+00  0.00000000E+00  0.00000000E+00  0.00000000E+00  0.00000000E+00
IOpCl                                      I                0
IROHF                                      I                0
Alpha Orbital Energies                     R   N=           7
 -2.02515766E+01 -1.25754913E+00 -5.93855230E-01 -4.59730005E-01 -3.92617037E-01
  5.81794121E-01  6.92674462E-01
Alpha MO coefficients                      R   N=          49
  9.94216404E-01  2.58471455E-02 -2.61653128E-17 -3.22065595E-16  4.16431302E-03
 -5.58388323E-03 -5.58388323E-03 -2.33765664E-01  8.44449112E-01 -4.38084105E-15
 -2.90716265E-17  1.22838239E-01  1.55594486E-01  1.55594486E-01 -3.46141141E-15
  1.84526446E-14  6.12696458E-01 -2.30198074E-17 -1.05026761E-14  4.49221913E-01
 -4.49221913E-01  1.04035913E-01 -5.38167285E-01  8.42017964E-15 -1.58186111E-15
  7.55876781E-01  2.95102605E-01  2.95102605E-01  2.92644798E-16 -1.27328174E-15
 -1.25528617E-17  1.00000000E+00  1.10067269E-15  8.01899286E-16  7.33670679E-16
 -1.25820122E-01  8.20145126E-01  6.61362228E-14  4.01342604E-16  7.63551965E-01
 -7.69164324E-01 -7.69164324E-01  1.04420005E-14 -7.46569892E-14  9.59802855E-01
  2.85292499E-17 -5.86147409E-14 -8.14647460E-01  8.14647460E-01
Total SCF Density                          R   N=          28
  2.10787223E+00 -4.55388551E-01  2.00677281E+00 -4.93434409E-16  6.14866228E-15
  7.50793899E-01 -3.70665032E-16 -9.09699664E-16 -5.33140324E-17  2.00000000E+00
  1.08126393E-01 -6.05899755E-01 -1.21715587E-15 -1.99863370E-16  1.17291257E+00
 -2.24459354E-02 -5.51345395E-02  5.50473350E-01  6.44043882E-16  4.84301814E-01
  6.26253398E-01 -2.24459354E-02 -5.51345395E-02 -5.50473350E-01  5.48950677E-16
  4.84301814E-01 -1.80947912E-01  6.26253398E-01
QEq coupling tensors                       R   N=          18
 -2.20587794E+00  0.00000000E+00  2.72496563E+00  2.17326157E-14  0.00000000E+00
 -5.19087696E-01 -2.00622317E-01  0.00000000E+00  2.32178654E-01 -2.76768325E-01
  0.00000000E+00 -3.15563370E-02 -2.00622317E-01  0.00000000E+00  2.32178654E-01
  2.76768325E-01  0.00000000E+00 -3.15563370E-02
Mulliken Charges                           R   N=           3
 -3.30529921E-01  1.65264960E-01  1.65264960E-01
ONIOM Charges                              I   N=          16
           0           0           0           0           0           0
           0           0           0           0           0           0
           0           0           0           0
ONIOM Multiplicities                       I   N=          16
           1           0           0           0           0           0
           0           0           0           0           0           0
           0           0           0           0
Atom Layers                                I   N=           3
           1           1           1
Atom Modifiers                             I   N=           3
           0           0           0
Force Field                                I                0
Int Atom Modified Types                    I   N=           3
           0           0           0
Link Atoms                                 I   N=           3
           0           0           0
Atom Modified MM Charges                   R   N=           3
  0.00000000E+00  0.00000000E+00  0.00000000E+00
Link Distances                             R   N=          12
  0.00000000E+00  0.00000000E+00  0.00000000E+00  0.00000000E+00  0.00000000E+00
  0.00000000E+00  0.00000000E+00  0.00000000E+00  0.00000000E+00  0.00000000E+00
  0.00000000E+00  0.00000000E+00
Cartesian Gradient                         R   N=           9
 -2.41334730E-14  2.62459650E-16  2.35851259E-08 -1.62768328E-08 -1.43212395E-16
 -1.17925496E-08  1.62768585E-08 -1.19247255E-16 -1.17925751E-08
Cartesian Force Constants                  R   N=          45
  8.03950837E-01  4.06272756E-18 -1.96299101E-08 -6.82152484E-13 -6.28392902E-17
  6.34899839E-01 -4.01975418E-01  2.13027364E-18 -2.16312000E-01  4.38911614E-01
 -1.13995491E-16  9.81481829E-09  3.03747439E-17  5.88257511E-17 -1.05888276E-08
 -3.37136787E-01  2.51545345E-17 -3.17449919E-01  2.76724393E-01 -4.47640737E-17
  3.00103264E-01 -4.01975418E-01 -6.19300120E-18  2.16312000E-01 -3.69361959E-02
  5.51697399E-17  6.04123939E-02  4.38911614E-01  1.09932763E-16  9.81482051E-09
  3.24645463E-17 -6.09560248E-17  7.74008663E-10  1.96095392E-17 -4.89767387E-17
 -1.05888294E-08  3.37136787E-01  3.76847557E-17 -3.17449919E-01 -6.04123939E-02
  1.43893298E-17  1.73466553E-02 -2.76724393E-01 -5.20740855E-17  3.00103264E-01
Dipole Moment                              R   N=           3
 -4.44089210E-16  5.07864556E-16  6.72454082E-01
Dipole Derivatives                         R   N=          27
 -3.11497404E-02 -5.73303626E-18 -5.24904150E-15  3.88366291E-17 -5.59682482E-01
  6.17987396E-16  1.99718845E-15 -3.34200871E-17  8.35318400E-02  1.55748702E-02
  3.89607540E-17 -1.57062753E-01 -4.93097793E-16  2.79841241E-01 -3.16198411E-16
 -2.21640203E-01  1.76512426E-17 -4.17659200E-02  1.55748702E-02 -3.32277177E-17
  1.57062753E-01  4.54261163E-16  2.79841241E-01 -3.01788986E-16  2.21640203E-01
  1.57688446E-17 -4.17659200E-02
Polarizability                             R   N=           6
  5.50805437E+00 -7.18718309E-18  4.00607656E-02  7.86248214E-14 -1.52895385E-17
  2.56591410E+00
HyperPolarizability                        R   N=          10
  1.01370060E-13  1.31319813E-15 -2.40754006E-15 -2.45253496E-16  7.01237551E+00
  6.90527038E-17 -7.62425311E-02  1.08958894E-13  1.12606774E-15  4.11425519E+00
