xx                                                                      
Freq      RHF                                                         STO-3G              
Number of atoms                            I                3
Info1-9                                    I   N=           9
          18          18        1001           0           0         101
           6           1           2
Charge                                     I                0
Multiplicity                               I                1
Number of electrons                        I               10
Number of alpha electrons                  I                5
Number of beta electrons                   I                5
Number of basis functions                  I                7
Number of independent functions            I                7
Number of point charges in /Mol/           I                0
Number of translation vectors              I                0
Atomic numbers                             I   N=           3
           8           1           1
Nuclear charges                            R   N=           3
  8.00000000E+00  1.00000000E+00  1.00000000E+00
Current cartesian coordinates              R   N=           9
 -1.23259516E-32  0.00000000E+00  2.40298428E-01  1.97215226E-31  1.43256478E+00
 -9.61193712E-01 -1.75438588E-16 -1.43256478E+00 -9.61193712E-01
Number of symbols in /Mol/                 I                0
Force Field                                I                0
Atom Types                                 C   N=           3
                                    
Int Atom Types                             I   N=           3
           0           0           0
MM charges                                 R   N=           3
  0.00000000E+00  0.00000000E+00  0.00000000E+00
Integer atomic weights                     I   N=           3
          16           1           1
Real atomic weights                        R   N=           3
  1.59949146E+01  1.00782504E+00  1.00782504E+00
Atom fragment info                         I   N=           3
           0           0           0
Atom residue num                           I   N=           3
           0           0           0
Nuclear spins                              I   N=           3
           0           1           1
Nuclear ZEff                               R   N=           3
 -5.60000000E+00 -1.00000000E+00 -1.00000000E+00
Nuclear QMom                               R   N=           3
  0.00000000E+00  0.00000000E+00  0.00000000E+00
Nuclear GFac                               R   N=           3
  0.00000000E+00  2.79284600E+00  2.79284600E+00
MicOpt                                     I   N=           3
          -1          -1          -1
Number of residues                         I                0
Number of secondary structures             I                0
Number of contracted shells                I                4
Number of primitive shells                 I               12
Pure/Cartesian d shells                    I                0
Pure/Cartesian f shells                    I                0
Highest angular momentum                   I                1
Largest degree of contraction              I                3
Shell types                                I   N=           4
           0          -1           0           0
Number of primitives per shell             I   N=           4
           3           3           3           3
Shell to atom map                          I   N=           4
           1           1           2           3
Primitive exponents                        R   N=          12
  1.30709321E+02  2.38088661E+01  6.44360831E+00  5.03315132E+00  1.16959612E+00
  3.80388960E-01  3.42525091E+00  6.23913730E-01  1.68855404E-01  3.42525091E+00
  6.23913730E-01  1.68855404E-01
Contraction coefficients                   R   N=          12
  1.54328967E-01  5.35328142E-01  4.44634542E-01 -9.99672292E-02  3.99512826E-01
  7.00115469E-01  1.54328967E-01  5.35328142E-01  4.44634542E-01  1.54328967E-01
  5.35328142E-01  4.44634542E-01
P(S=P) Contraction coefficients            R   N=          12
  0.00000000E+00  0.00000000E+00  0.00000000E+00  1.55916275E-01  6.07683719E-01
  3.91957393E-01  0.00000000E+00  0.00000000E+00  0.00000000E+00  0.00000000E+00
  0.00000000E+00  0.00000000E+00
Coordinates of each shell                  R   N=          12
 -1.62904874E-32  6.66962119E-18  2.40298428E-01 -1.62904874E-32  6.66962119E-18
  2.40298428E-01  1.18021406E-31  1.43256478E+00 -9.61193712E-01 -1.75438588E-16
 -1.43256478E+00 -9.61193712E-01
Constraint Structure                       R   N=           9
 -1.62904874E-32  6.66962119E-18  2.40298428E-01  1.18021406E-31  1.43256478E+00
 -9.61193712E-01 -1.75438588E-16 -1.43256478E+00 -9.61193712E-01
Num ILSW                                   I              100
ILSW                                       I   N=         100
           0           0           0           0           2           0
           0           0           3           0           0          -1
           5           0           0           0           0           0
           0           0           1           0           1           0
           1           0           0           0           0           0
           0           0      100000           0          -1           0
           0           0           0           0           0           0
           0           0           0           1           0           0
           0           0           1           0           0           0
           0           0           4          40           0           0
           0           0           0           0           0           0
           0           0           0           0           0           0
           0           0           0           0           0           0
           0           0           0           0           0           0
           0           0           0           0           0           0
           0           0           0           0           0           0
           0           0           0           0
Num RLSW                                   I               40
RLSW                                       R   N=          40
  1.00000000E+00  1.00000000E+00  1.00000000E+00  1.00000000E+00  1.00000000E+00
  0.00000000E+00  0.00000000E+00  1.00000000E+00  0.00000000E+00  0.00000000E+00
  0.00000000E+00  0.00000000E+00  1.00000000E+00  0.00000000E+00  0.00000000E+00
  0.00000000E+00  0.00000000E+00  1.00000000E+00  0.00000000E+00  0.00000000E+00
  0.00000000E+00  0.00000000E+00  1.00000000E+00  0.00000000E+00  0.00000000E+00
  0.00000000E+00  0.00000000E+00  1.00000000E+00  0.00000000E+00  0.00000000E+00
  0.00000000E+00  0.00000000E+00  1.00000000E+00  0.00000000E+00  0.00000000E+00
  0.00000000E+00  0.00000000E+00  0.00000000E+00  1.00000000E+00  1.00000000E+00
MxBond                                     I                2
NBond                                      I   N=           3
           2           1           1
IBond                                      I   N=           6
           2           3           1           0           1           0
RBond                                      R   N=           6
  1.00000000E+00  1.00000000E+00  1.00000000E+00  0.00000000E+00  1.00000000E+00
  0.00000000E+00
Virial Ratio                               R      2.006002415528288E+00
SCF Energy                                 R     -7.496590121709322E+01
Total Energy                               R     -7.496590121709322E+01
RMS Force                                  R      1.463914380187510E-08
RMS Density                                R      1.288351384547424E-10
External E-field                           R   N=          35
  0.00000000E+00  0.00000000E+00  0.00000000E+00  0.00000000E+00  0.00000000E+00
  0.00000000E+00  0.00000000E+00  0.00000000E+00  0.00000000E+00  0.00000000E+00
  0.00000000E+00  0.00000000E+00  0.00000000E+00  0.00000000E+00  0.00000000E+00
  0.00000000E+00  0.00000000E+00  0.00000000E+00  0.00000000E+00  0.00000000E+00
  0.00000000E+00  0.00000000E+00  0.00000000E+00  0.00000000E+00  0.00000000E+00
  0.00000000E+00  0.00000000E+00  0.00000000E+00  0.00000000E+00  0.00000000E+00
  0.00000000E+00  0.00000000E+00  0.00000000E+00  0.00000000E+00  0.00000000E+00
IOpCl                                      I                0
IROHF                                      I                0
Alpha Orbital Energies                     R   N=           7
 -2.02515766E+01 -1.25754914E+00 -5.93855226E-01 -4.59730013E-01 -3.92617039E-01
  5.81794129E-01  6.92674457E-01
Alpha MO coefficients                      R   N=          49
  9.94216404E-01  2.58471456E-02  0.00000000E+00  0.00000000E+00 -4.16431314E-03
 -5.58388323E-03 -5.58388323E-03 -2.33765663E-01  8.44449110E-01  0.00000000E+00
  0.00000000E+00 -1.22838243E-01  1.55594486E-01  1.55594486E-01  0.00000000E+00
  0.00000000E+00  0.00000000E+00  6.12696463E-01  0.00000000E+00  4.49221915E-01
 -4.49221915E-01 -1.04035915E-01  5.38167295E-01  0.00000000E+00  0.00000000E+00
  7.55876772E-01 -2.95102607E-01 -2.95102607E-01  0.00000000E+00  0.00000000E+00
  1.00000000E+00  0.00000000E+00  0.00000000E+00  0.00000000E+00  0.00000000E+00
 -1.25820121E-01  8.20145124E-01  0.00000000E+00  0.00000000E+00 -7.63551982E-01
 -7.69164322E-01 -7.69164322E-01  0.00000000E+00  0.00000000E+00  0.00000000E+00
  9.59802847E-01  0.00000000E+00 -8.14647467E-01  8.14647467E-01
Total SCF Density                          R   N=          28
  2.10787223E+00 -4.55388554E-01  2.00677282E+00  2.66552138E-33 -1.49365821E-32
  2.00000000E+00 -3.00111027E-18  1.68170964E-17  1.84889275E-32  7.50793913E-01
 -1.08126393E-01  6.05899754E-01 -4.12404781E-32  1.17161455E-17  1.17291254E+00
 -2.24459335E-02 -5.51345485E-02  4.31408308E-32  5.50473357E-01 -4.84301813E-01
  6.26253403E-01 -2.24459335E-02 -5.51345485E-02 -1.84889275E-32 -5.50473357E-01
 -4.84301813E-01 -1.80947913E-01  6.26253403E-01
QEq coupling tensors                       R   N=          18
  2.72496565E+00  1.16463579E-16 -2.20587786E+00  1.02434103E-16 -2.77555756E-17
 -5.19087790E-01  2.32178661E-01  3.84826672E-18 -2.00622312E-01  2.07451075E-18
  2.76768337E-01 -3.15563490E-02  2.32178661E-01 -1.02034138E-16 -2.00622312E-01
 -8.03643124E-17 -2.76768337E-01 -3.15563490E-02
Mulliken Charges                           R   N=           3
 -3.30529919E-01  1.65264960E-01  1.65264960E-01
ONIOM Charges                              I   N=          16
           0           0           0           0           0           0
           0           0           0           0           0           0
           0           0           0           0
ONIOM Multiplicities                       I   N=          16
           1           0           0           0           0           0
           0           0           0           0           0           0
           0           0           0           0
Atom Layers                                I   N=           3
           1           1           1
Atom Modifiers                             I   N=           3
           0           0           0
Force Field                                I                0
Atom Modified Types                        C   N=           3
                                    
Int Atom Modified Types                    I   N=           3
           0           0           0
Link Atoms                                 I   N=           3
           0           0           0
Atom Modified MM Charges                   R   N=           3
  0.00000000E+00  0.00000000E+00  0.00000000E+00
Link Distances                             R   N=          12
  0.00000000E+00  0.00000000E+00  0.00000000E+00  0.00000000E+00  0.00000000E+00
  0.00000000E+00  0.00000000E+00  0.00000000E+00  0.00000000E+00  0.00000000E+00
  0.00000000E+00  0.00000000E+00
Cartesian Gradient                         R   N=           9
  3.83100539E-16 -1.04083409E-15 -1.70396035E-08 -3.00745896E-17 -2.73241538E-08
  8.51979909E-09 -3.53025949E-16  2.73241534E-08  8.51979909E-09
Cartesian Force Constants                  R   N=          45
 -1.43857823E-08 -1.40474389E-16  8.03950819E-01 -2.19676477E-16  1.11022302E-16
  6.34899870E-01  7.19226678E-09  2.17196655E-18  3.15176983E-17 -1.30739775E-08
 -4.73557723E-17 -4.01975410E-01  2.16312008E-01  3.33001293E-17  4.38911615E-01
  5.70161509E-17  3.37136798E-01 -3.17449935E-01 -2.09929302E-17 -2.76724403E-01
  3.00103281E-01  7.19226678E-09  2.18581267E-16  1.92832940E-16  5.88171119E-09
 -7.06761342E-18 -5.12672840E-18 -1.30739770E-08  2.27237115E-16 -4.01975410E-01
 -2.16312008E-01 -1.57234612E-17 -3.69362050E-02 -6.04123949E-02 -2.70669241E-16
  4.38911615E-01  1.82587811E-16 -3.37136798E-01 -3.17449935E-01  5.11840081E-18
  6.04123949E-02  1.73466542E-02 -2.23276865E-16  2.76724403E-01  3.00103281E-01
Dipole Moment                              R   N=           3
 -3.44475797E-17 -5.55111512E-17 -6.72454092E-01
Dipole Derivatives                         R   N=          27
 -5.59682473E-01  1.04832336E-16  1.63167886E-16  1.20314222E-17 -3.11497436E-02
  5.79397641E-16  2.51282855E-17  3.53883589E-16  8.35318562E-02  2.79841237E-01
  3.24176268E-18  1.20613245E-17  2.84193129E-18  1.55748718E-02  1.57062756E-01
 -5.69167483E-18  2.21640210E-01 -4.17659281E-02  2.79841237E-01  1.13706386E-17
 -5.60950161E-17  3.19762020E-17  1.55748718E-02 -1.57062756E-01  2.93685292E-17
 -2.21640210E-01 -4.17659281E-02
Polarizability                             R   N=           6
  4.00607623E-02  3.18279520E-16  5.50805413E+00  1.58803740E-16 -1.33226763E-15
  2.56591427E+00
HyperPolarizability                        R   N=          10
 -3.59193722E-17  9.71445147E-17 -2.96842589E-16 -8.88178420E-15  7.62425305E-02
 -3.00230891E-16 -7.01237541E+00 -1.56025467E-16  2.22044605E-15 -4.11425538E+00
