xx                                                                      
Freq      RHF                                                         STO-3G              
Number of atoms                            I                3
Info1-9                                    I   N=           9
          14          14           0           0           0         101
           6           1           2
Charge                                     I                0
Multiplicity                               I                1
Number of electrons                        I               10
Number of alpha electrons                  I                5
Number of beta electrons                   I                5
Number of basis functions                  I                7
Number of independent functions            I                7
Number of point charges in /Mol/           I                0
Number of translation vectors              I                0
Atomic numbers                             I   N=           3
           8           1           1
Nuclear charges                            R   N=           3
  8.00000000E+00  1.00000000E+00  1.00000000E+00
Current cartesian coordinates              R   N=           9
  0.00000000E+00  0.00000000E+00  0.00000000E+00  0.00000000E+00  0.00000000E+00
  1.86971261E+00  1.84115497E+00  0.00000000E+00 -3.25535895E-01
Number of symbols in /Mol/                 I                0
Force Field                                I                0
Atom Types                                 C   N=           3
                                    
Int Atom Types                             I   N=           3
           0           0           0
MM charges                                 R   N=           3
  0.00000000E+00  0.00000000E+00  0.00000000E+00
Integer atomic weights                     I   N=           3
          16           1           1
Real atomic weights                        R   N=           3
  1.59949146E+01  1.00782504E+00  1.00782504E+00
Atom fragment info                         I   N=           3
           0           0           0
Atom residue num                           I   N=           3
           0           0           0
Nuclear spins                              I   N=           3
           0           1           1
Nuclear ZEff                               R   N=           3
 -5.60000000E+00 -1.00000000E+00 -1.00000000E+00
Nuclear QMom                               R   N=           3
  0.00000000E+00  0.00000000E+00  0.00000000E+00
Nuclear GFac                               R   N=           3
  0.00000000E+00  2.79284600E+00  2.79284600E+00
MicOpt                                     I   N=           3
          -1          -1          -1
Number of residues                         I                0
Number of secondary structures             I                0
Number of contracted shells                I                4
Number of primitive shells                 I               12
Pure/Cartesian d shells                    I                0
Pure/Cartesian f shells                    I                0
Highest angular momentum                   I                1
Largest degree of contraction              I                3
Shell types                                I   N=           4
           0          -1           0           0
Number of primitives per shell             I   N=           4
           3           3           3           3
Shell to atom map                          I   N=           4
           1           1           2           3
Primitive exponents                        R   N=          12
  1.30709321E+02  2.38088661E+01  6.44360831E+00  5.03315132E+00  1.16959612E+00
  3.80388960E-01  3.42525091E+00  6.23913730E-01  1.68855404E-01  3.42525091E+00
  6.23913730E-01  1.68855404E-01
Contraction coefficients                   R   N=          12
  1.54328967E-01  5.35328142E-01  4.44634542E-01 -9.99672292E-02  3.99512826E-01
  7.00115469E-01  1.54328967E-01  5.35328142E-01  4.44634542E-01  1.54328967E-01
  5.35328142E-01  4.44634542E-01
P(S=P) Contraction coefficients            R   N=          12
  0.00000000E+00  0.00000000E+00  0.00000000E+00  1.55916275E-01  6.07683719E-01
  3.91957393E-01  0.00000000E+00  0.00000000E+00  0.00000000E+00  0.00000000E+00
  0.00000000E+00  0.00000000E+00
Coordinates of each shell                  R   N=          12
  0.00000000E+00  0.00000000E+00  0.00000000E+00  0.00000000E+00  0.00000000E+00
  0.00000000E+00  0.00000000E+00  0.00000000E+00  1.86971261E+00  1.84115497E+00
  0.00000000E+00 -3.25535895E-01
Constraint Structure                       R   N=           9
  0.00000000E+00  0.00000000E+00  0.00000000E+00  0.00000000E+00  0.00000000E+00
  1.86971261E+00  1.84115497E+00  0.00000000E+00 -3.25535895E-01
Num ILSW                                   I              100
ILSW                                       I   N=         100
           0           0           0           0           2           0
           0           0           3           0           0          -1
           5           3           0           0           0           0
           0           0           1           0           1           0
           1           1           0           0           0           0
           0           0      100000           0          -1           0
           0           0           0           0           0           0
           0           0           0           1           0           0
           0           0           1           0           0           0
           0           0           4          40           0           0
           0           0           0           0           0           0
           0           0           0           0           0           0
           0           0           0           0           0           0
           0           0           0           0           0           0
           0           0           0           0           0           0
           0           0           0           0           0           0
           0           0           0           0
Num RLSW                                   I               40
RLSW                                       R   N=          40
  1.00000000E+00  1.00000000E+00  1.00000000E+00  1.00000000E+00  1.00000000E+00
  0.00000000E+00  0.00000000E+00  1.00000000E+00  0.00000000E+00  0.00000000E+00
  0.00000000E+00  0.00000000E+00  1.00000000E+00  0.00000000E+00  0.00000000E+00
  0.00000000E+00  0.00000000E+00  1.00000000E+00  0.00000000E+00  0.00000000E+00
  0.00000000E+00  0.00000000E+00  1.00000000E+00  0.00000000E+00  0.00000000E+00
  0.00000000E+00  0.00000000E+00  1.00000000E+00  0.00000000E+00  0.00000000E+00
  0.00000000E+00  0.00000000E+00  1.00000000E+00  0.00000000E+00  0.00000000E+00
  0.00000000E+00  0.00000000E+00  0.00000000E+00  1.00000000E+00  1.00000000E+00
MxBond                                     I                2
NBond                                      I   N=           3
           2           1           1
IBond                                      I   N=           6
           2           3           1           0           1           0
RBond                                      R   N=           6
  1.00000000E+00  1.00000000E+00  1.00000000E+00  0.00000000E+00  1.00000000E+00
  0.00000000E+00
Virial Ratio                               R      2.006002415662446E+00
SCF Energy                                 R     -7.496590121709318E+01
Total Energy                               R     -7.496590121709318E+01
RMS Force                                  R      1.150117619783178E-08
RMS Density                                R      2.287311467483217E-10
External E-field                           R   N=          35
  0.00000000E+00  0.00000000E+00  0.00000000E+00  0.00000000E+00  0.00000000E+00
  0.00000000E+00  0.00000000E+00  0.00000000E+00  0.00000000E+00  0.00000000E+00
  0.00000000E+00  0.00000000E+00  0.00000000E+00  0.00000000E+00  0.00000000E+00
  0.00000000E+00  0.00000000E+00  0.00000000E+00  0.00000000E+00  0.00000000E+00
  0.00000000E+00  0.00000000E+00  0.00000000E+00  0.00000000E+00  0.00000000E+00
  0.00000000E+00  0.00000000E+00  0.00000000E+00  0.00000000E+00  0.00000000E+00
  0.00000000E+00  0.00000000E+00  0.00000000E+00  0.00000000E+00  0.00000000E+00
IOpCl                                      I                0
IROHF                                      I                0
Alpha Orbital Energies                     R   N=           7
 -2.02515766E+01 -1.25754913E+00 -5.93855226E-01 -4.59730010E-01 -3.92617039E-01
  5.81794124E-01  6.92674455E-01
Alpha MO coefficients                      R   N=          49
  9.94216404E-01  2.58471455E-02  3.19067663E-03  8.24327441E-17  2.67602056E-03
 -5.58388320E-03 -5.58388320E-03 -2.33765663E-01  8.44449112E-01  9.41180687E-02
 -5.24452323E-16  7.89368263E-02  1.55594486E-01  1.55594486E-01  7.21633514E-14
 -3.05774126E-13 -3.93723598E-01 -7.95412432E-16  4.69445079E-01  4.49221915E-01
 -4.49221915E-01  1.04035914E-01 -5.38167290E-01  5.79149145E-01 -1.54313203E-14
  4.85732401E-01  2.95102608E-01  2.95102608E-01  1.34875591E-15 -7.15819937E-15
  9.22836845E-15  1.00000000E+00  7.84752153E-15  4.62765135E-15  3.42422942E-15
 -1.25820121E-01  8.20145119E-01  5.85029848E-01 -1.34512727E-15  4.90664547E-01
 -7.69164321E-01 -7.69164321E-01 -1.39095736E-13  8.89600649E-13  6.16776911E-01
  1.02412389E-16 -7.35396321E-01  8.14647462E-01 -8.14647462E-01
Total SCF Density                          R   N=          28
  2.10787223E+00 -4.55388553E-01  2.00677282E+00  8.28459217E-02 -4.64237474E-01
  9.98600791E-01 -1.04201333E-16  1.41137963E-15  1.11081540E-15  2.00000000E+00
  6.94828764E-02 -3.89355980E-01  2.07835638E-01 -1.25102406E-16  9.25105663E-01
 -2.24459339E-02 -5.51345463E-02  1.73311812E-02 -7.31100789E-16  7.32986216E-01
  6.26253403E-01 -2.24459339E-02 -5.51345463E-02  7.24808256E-01 -1.70867787E-15
 -1.10553853E-01 -1.80947911E-01  6.26253403E-01
QEq coupling tensors                       R   N=          18
 -1.21563921E+00  4.14152371E-15  2.72496565E+00  8.30513200E-01  1.01641499E-16
 -1.50932644E+00  1.71169740E-01  4.19713320E-17  2.32178654E-01  3.50536742E-02
 -2.49617931E-16 -4.03348394E-01 -3.73912297E-01 -2.08661171E-16  2.32178654E-01
  1.31430009E-01  4.99241967E-17  1.41733644E-01
Mulliken Charges                           R   N=           3
 -3.30529917E-01  1.65264959E-01  1.65264959E-01
ONIOM Charges                              I   N=          16
           0           0           0           0           0           0
           0           0           0           0           0           0
           0           0           0           0
ONIOM Multiplicities                       I   N=          16
           1           0           0           0           0           0
           0           0           0           0           0           0
           0           0           0           0
Atom Layers                                I   N=           3
           1           1           1
Atom Modifiers                             I   N=           3
           0           0           0
Force Field                                I                0
Atom Modified Types                        C   N=           3
                                    
Int Atom Modified Types                    I   N=           3
           0           0           0
Link Atoms                                 I   N=           3
           0           0           0
Atom Modified MM Charges                   R   N=           3
  0.00000000E+00  0.00000000E+00  0.00000000E+00
Link Distances                             R   N=          12
  0.00000000E+00  0.00000000E+00  0.00000000E+00  0.00000000E+00  0.00000000E+00
  0.00000000E+00  0.00000000E+00  0.00000000E+00  0.00000000E+00  0.00000000E+00
  0.00000000E+00  0.00000000E+00
Cartesian Gradient                         R   N=           9
  1.14811392E-08 -4.30977992E-16  9.62926627E-09  7.53580769E-09  9.70923328E-17
 -2.06443524E-08 -1.90169476E-08  3.33885659E-16  1.10150887E-08
Cartesian Force Constants                  R   N=          45
  7.04708591E-01 -7.83104524E-16 -1.24722481E-08 -8.32344538E-02 -6.65895251E-16
  7.34142075E-01 -7.98565382E-02  3.81608824E-16 -6.69756856E-02  8.49257142E-02
  4.55703471E-16  6.23616891E-09  2.77465029E-16 -4.10435937E-16 -1.03289799E-08
  5.38491024E-02  2.86535150E-16 -6.39568795E-01 -2.01635834E-02 -2.25135046E-16
  6.54089165E-01 -6.24852053E-01  4.01495701E-16  1.50210139E-01 -5.06917605E-03
 -4.52675337E-17 -3.36855190E-02  6.29921229E-01  3.27401054E-16  6.23601215E-09
  3.88430222E-16  2.88271133E-17  4.09280770E-09 -6.14001040E-17 -3.56228167E-16
 -1.03288187E-08  2.93853515E-02  3.79360101E-16 -9.45732800E-02  8.71392690E-02
 -5.23299831E-17 -1.45203709E-02 -1.16524620E-01 -3.27030118E-16  1.09093651E-01
Dipole Moment                              R   N=           3
  5.15231084E-01 -3.75218073E-16  4.32124322E-01
Dipole Derivatives                         R   N=          27
  3.61746691E-02 -2.41323147E-16  5.64649838E-02  6.49787814E-16 -5.59682473E-01
  1.32086569E-15  5.64649838E-02 -2.96786880E-16  1.62074428E-02  1.68372027E-01
  2.19802819E-16 -9.34892282E-02 -2.94622228E-17  2.79841236E-01 -1.56159459E-15
 -2.89117753E-02  7.33793324E-17 -1.94563083E-01 -2.04546696E-01  2.15203280E-17
  3.70242444E-02 -6.20325591E-16  2.79841236E-01  2.40728895E-16 -2.75532085E-02
  2.23407548E-16  1.78355641E-01
Polarizability                             R   N=           6
  3.78085606E+00 -5.37035642E-16  4.00607636E-02 -1.44860117E+00 -6.71403156E-16
  4.29311243E+00
HyperPolarizability                        R   N=          10
  8.50665855E+00 -5.54230176E-15 -5.84166611E-02  1.14447474E-15 -1.87788134E+00
  1.50650619E-15 -4.89940550E-02  1.85124451E-02 -8.57845276E-15  9.02794245E+00
