 Entering Gaussian System, Link 0=g09
 Initial command:
 /Applications/chimie/g09/l1.exe /userTMP/lauvergn/Gau-19051.inp -scrdir=/userTMP/lauvergn/
 Entering Link 1 = /Applications/chimie/g09/l1.exe PID=     19052.
  
 Copyright (c) 1988,1990,1992,1993,1995,1998,2003,2009,2010,
            Gaussian, Inc.  All Rights Reserved.
  
 This is part of the Gaussian(R) 09 program.  It is based on
 the Gaussian(R) 03 system (copyright 2003, Gaussian, Inc.),
 the Gaussian(R) 98 system (copyright 1998, Gaussian, Inc.),
 the Gaussian(R) 94 system (copyright 1995, Gaussian, Inc.),
 the Gaussian 92(TM) system (copyright 1992, Gaussian, Inc.),
 the Gaussian 90(TM) system (copyright 1990, Gaussian, Inc.),
 the Gaussian 88(TM) system (copyright 1988, Gaussian, Inc.),
 the Gaussian 86(TM) system (copyright 1986, Carnegie Mellon
 University), and the Gaussian 82(TM) system (copyright 1983,
 Carnegie Mellon University). Gaussian is a federally registered
 trademark of Gaussian, Inc.
  
 This software contains proprietary and confidential information,
 including trade secrets, belonging to Gaussian, Inc.
  
 This software is provided under written license and may be
 used, copied, transmitted, or stored only in accord with that
 written license.
  
 The following legend is applicable only to US Government
 contracts under FAR:
  
                    RESTRICTED RIGHTS LEGEND
  
 Use, reproduction and disclosure by the US Government is
 subject to restrictions as set forth in subparagraphs (a)
 and (c) of the Commercial Computer Software - Restricted
 Rights clause in FAR 52.227-19.
  
 Gaussian, Inc.
 340 Quinnipiac St., Bldg. 40, Wallingford CT 06492
  
  
 ---------------------------------------------------------------
 Warning -- This program may not be used in any manner that
 competes with the business of Gaussian, Inc. or will provide
 assistance to any competitor of Gaussian, Inc.  The licensee
 of this program is prohibited from giving any competitor of
 Gaussian, Inc. access to this program.  By using this program,
 the user acknowledges that Gaussian, Inc. is engaged in the
 business of creating and licensing software in the field of
 computational chemistry and represents and warrants to the
 licensee that it is not a competitor of Gaussian, Inc. and that
 it will not use this program in any manner prohibited above.
 ---------------------------------------------------------------
  

 Cite this work as:
 Gaussian 09, Revision B.01,
 M. J. Frisch, G. W. Trucks, H. B. Schlegel, G. E. Scuseria, 
 M. A. Robb, J. R. Cheeseman, G. Scalmani, V. Barone, B. Mennucci, 
 G. A. Petersson, H. Nakatsuji, M. Caricato, X. Li, H. P. Hratchian, 
 A. F. Izmaylov, J. Bloino, G. Zheng, J. L. Sonnenberg, M. Hada, 
 M. Ehara, K. Toyota, R. Fukuda, J. Hasegawa, M. Ishida, T. Nakajima, 
 Y. Honda, O. Kitao, H. Nakai, T. Vreven, J. A. Montgomery, Jr., 
 J. E. Peralta, F. Ogliaro, M. Bearpark, J. J. Heyd, E. Brothers, 
 K. N. Kudin, V. N. Staroverov, T. Keith, R. Kobayashi, J. Normand, 
 K. Raghavachari, A. Rendell, J. C. Burant, S. S. Iyengar, J. Tomasi, 
 M. Cossi, N. Rega, J. M. Millam, M. Klene, J. E. Knox, J. B. Cross, 
 V. Bakken, C. Adamo, J. Jaramillo, R. Gomperts, R. E. Stratmann, 
 O. Yazyev, A. J. Austin, R. Cammi, C. Pomelli, J. W. Ochterski, 
 R. L. Martin, K. Morokuma, V. G. Zakrzewski, G. A. Voth, 
 P. Salvador, J. J. Dannenberg, S. Dapprich, A. D. Daniels, 
 O. Farkas, J. B. Foresman, J. V. Ortiz, J. Cioslowski, 
 and D. J. Fox, Gaussian, Inc., Wallingford CT, 2010.
 
 ******************************************
 Gaussian 09:  EM64M-G09RevB.01 12-Aug-2010
                 7-Aug-2016 
 ******************************************
 %chk=xx
 ----------------------------------------------------------------------
 #n freq=noraman hf sto-3g opt=(z-matrix,verytight) # nosymm scf=tight 
 FormCheck=All # integral=(grid=ultrafine) # iop(1/18=40,2/9=111,2/11=1
 ,7/33=1,1/33=1) # iop(3/27=30,11/27=30)
 ----------------------------------------------------------------------
 1/7=1,10=7,18=40,33=1,38=1/1,3;
 2/9=111,11=1,12=2,15=1,17=6,18=5,29=3,40=1/2;
 3/6=3,11=9,16=1,25=1,27=30,30=1,71=1,75=-5/1,2,3;
 4//1;
 5/5=2,32=2,38=5/2;
 6/7=2,8=2,9=2,10=2,28=1/1;
 7/29=1,30=1,33=1/1,2,3,16;
 1/7=1,10=7,18=40,33=1/3(2);
 2/9=111,11=1,15=1,29=3/2;
 99//99;
 2/9=111,11=1,15=1,29=3/2;
 3/6=3,11=9,16=1,25=1,27=30,30=1,71=1,75=-5/1,2,3;
 4/5=5,16=3/1;
 5/5=2,32=2,38=5/2;
 7/30=1,33=1/1,2,3,16;
 1/7=1,18=40,33=1/3(-5);
 2/9=111,11=1,15=1,29=3/2;
 6/7=2,8=2,9=2,10=2,19=2,28=1/1;
 99/9=1/99;
 ONIOM results not found on unit 2.
 --
 xx
 --
 Symbolic Z-matrix:
 Charge =  0 Multiplicity = 1
 O
 H1                   O    R1
 H2                   O    R2       H1   A
       Variables:
  R1                    0.9895                   
  R2                    0.9895                   
  A                   100.015                    
 
 PrtBox:  NBox=     1 Levels=  1 BoxLen=    8.00 SMaxX=        2.20
          Shift=            0.000000            0.000000            0.325184
 Box      1 Number                   0 centers from      1 to      3:
 ITRead=  0  0  0
 MicOpt= -1 -1 -1
 No MM parameters found.

 GradGradGradGradGradGradGradGradGradGradGradGradGradGradGradGradGradGrad
 Berny optimization.
 Initialization pass.
                       ----------------------------
                       !    Initial Parameters    !
                       ! (Angstroms and Degrees)  !
 ----------------------                            ----------------------
 !      Name          Value   Derivative information (Atomic Units)     !
 ------------------------------------------------------------------------
 !       R1          0.9895   estimate D2E/DX2                          !
 !       R2          0.9895   estimate D2E/DX2                          !
 !        A        100.015    estimate D2E/DX2                          !
 ------------------------------------------------------------------------
 Maximum allowed force set to 1.00D+20.
 Trust Radius=3.00D-01 FncErr=1.00D-07 GrdErr=1.00D-07
 Number of steps in this run=     20 maximum allowed number of steps=    100.
 GradGradGradGradGradGradGradGradGradGradGradGradGradGradGradGradGradGrad

 ---------------------------------------------------------------------------------------------------
                            Z-MATRIX (ANGSTROMS AND DEGREES)
   CD    Cent   Atom    N1       Length/X        N2       Alpha/Y        N3        Beta/Z          J
 ---------------------------------------------------------------------------------------------------
      1      1  O 
      2      2  H        1   0.989500(     1)
      3      3  H        1   0.989500(     2)      2  100.015(     3)
 ---------------------------------------------------------------------------------------------------
                         Z-Matrix orientation:                         
 ---------------------------------------------------------------------
 Center     Atomic      Atomic             Coordinates (Angstroms)
 Number     Number       Type             X           Y           Z
 ---------------------------------------------------------------------
      1          8           0        0.000000    0.000000    0.000000
      2          1           0        0.000000    0.000000    0.989500
      3          1           0        0.974422    0.000000   -0.172080
 ---------------------------------------------------------------------
 Symmetry turned off by external request.
 Stoichiometry    H2O
 Framework group  C2V[C2(O),SGV(H2)]
 Deg. of freedom     2
 Full point group                 C2V     NOp   4
 Rotational constants (GHZ):    698.0979908    436.2818396    268.4880915
 Standard basis: STO-3G (5D, 7F)
 Integral buffers will be    131072 words long.
 Raffenetti 1 integral format.
 Two-electron integral symmetry is turned off.
     7 basis functions,    21 primitive gaussians,     7 cartesian basis functions
     5 alpha electrons        5 beta electrons
       nuclear repulsion energy         8.9057031832 Hartrees.
 NAtoms=    3 NActive=    3 NUniq=    3 SFac= 1.00D+00 NAtFMM=   50 NAOKFM=F Big=F
 One-electron integrals computed using PRISM.
 NBasis=     7 RedAO= T  NBF=     7
 NBsUse=     7 1.00D-06 NBFU=     7
 Harris functional with IExCor=  205 diagonalized for initial guess.
 ExpMin= 1.69D-01 ExpMax= 1.31D+02 ExpMxC= 1.31D+02 IAcc=3 IRadAn=         5 AccDes= 0.00D+00
 HarFok:  IExCor=  205 AccDes= 0.00D+00 IRadAn=         5 IDoV= 1
 ScaDFX=  1.000000  1.000000  1.000000  1.000000
 FoFCou: FMM=F IPFlag=           0 FMFlag=      100000 FMFlg1=           0
         NFxFlg=           0 DoJE=T BraDBF=F KetDBF=T FulRan=T
         Omega=  0.000000  0.000000  1.000000  0.000000  0.000000 ICntrl=     500 IOpCl=  0
         NMat0=    1 NMatS0=    1 NMatT0=    0 NMatD0=    1 NMtDS0=    0 NMtDT0=    0
         I1Cent=           4 NGrid=           0.
 Symmetry not used in FoFCou.
 Requested convergence on RMS density matrix=1.00D-08 within 128 cycles.
 Requested convergence on MAX density matrix=1.00D-06.
 Requested convergence on             energy=1.00D-06.
 No special actions if energy rises.
 Keep R1 ints in memory in canonical form, NReq=820147.
 SCF Done:  E(RHF) =  -74.9659011951     A.U. after    7 cycles
             Convg  =    0.2287D-09             -V/T =  2.0060

 **********************************************************************

            Population analysis using the SCF density.

 **********************************************************************

 Alpha  occ. eigenvalues --  -20.25160  -1.25752  -0.59379  -0.45975  -0.39262
 Alpha virt. eigenvalues --    0.58173   0.69254
          Condensed to atoms (all electrons):
              1          2          3
     1  O    7.822727   0.253854   0.253854
     2  H    0.253854   0.626320  -0.045392
     3  H    0.253854  -0.045392   0.626320
 Mulliken atomic charges:
              1
     1  O   -0.330435
     2  H    0.165218
     3  H    0.165218
 Sum of Mulliken atomic charges =   0.00000
 Mulliken charges with hydrogens summed into heavy atoms:
              1
     1  O    0.000000
 Sum of Mulliken charges with hydrogens summed into heavy atoms =   0.00000
 Electronic spatial extent (au):  <R**2>=             18.5242
 Charge=              0.0000 electrons
 Dipole moment (field-independent basis, Debye):
    X=              1.3094    Y=              0.0000    Z=              1.0984  Tot=              1.7091
 Quadrupole moment (field-independent basis, Debye-Ang):
   XX=             -4.7280   YY=             -6.1257   ZZ=             -4.6563
   XY=              0.0000   XZ=             -0.2030   YZ=              0.0000
 Traceless Quadrupole moment (field-independent basis, Debye-Ang):
   XX=              0.4420   YY=             -0.9558   ZZ=              0.5137
   XY=              0.0000   XZ=             -0.2030   YZ=              0.0000
 Octapole moment (field-independent basis, Debye-Ang**2):
  XXX=             -0.8365  YYY=              0.0000  ZZZ=             -0.5162  XYY=             -0.6117
  XXY=              0.0000  XXZ=             -0.6514  XZZ=             -0.5553  YZZ=              0.0000
  YYZ=             -0.5131  XYZ=              0.0000
 Hexadecapole moment (field-independent basis, Debye-Ang**3):
 XXXX=             -5.5293 YYYY=             -3.2654 ZZZZ=             -5.7203 XXXY=              0.0000
 XXXZ=              0.1716 YYYX=              0.0000 YYYZ=              0.0000 ZZZX=              0.3694
 ZZZY=              0.0000 XXYY=             -1.6650 XXZZ=             -2.2366 YYZZ=             -1.7075
 XXYZ=              0.0000 YYXZ=              0.1204 ZZXY=              0.0000
 N-N= 8.905703183155D+00 E-N=-1.963510799060D+02  KE= 7.451842597885D+01
 DipInt: DoE/N= T T RetVal/Mat= T F Init=T NMatP=  1 IDeriv=0 Min/MaxMlt=  1  1
 Entering OneElI...
 Multipole integrals L=1 to 1 MinM= 0 MaxM= 0.
 Requested accuracy = 0.1000D-12
 PrsmSu:  NPrtUS=   1 ThrOK=F IAlg=1 NPAlg=1 LenDen=           0.
 Prism:   IPart=     0 DynPar=F LinDyn=F Incr=           1.
 PRISM was handed    33552088 working-precision words and    10 shell-pairs
 IPart=  0 NShTot=          10 NBatch=           3 AvBLen=         3.3
 PrSmSu:  NxtVal=              2.
 Entering OneElI...
 Calculate overlap and kinetic energy integrals
    NBasis =   7  MinDer = 1  MaxDer = 1
 Requested accuracy = 0.1000D-12
 PrsmSu:  NPrtUS=   1 ThrOK=F IAlg=1 NPAlg=1 LenDen=           0.
 Prism:   IPart=     0 DynPar=F LinDyn=F Incr=           1.
 PRISM was handed    33552003 working-precision words and    10 shell-pairs
 IPart=  0 NShTot=          10 NBatch=           3 AvBLen=         3.3
 PrSmSu:  NxtVal=              2.
 Entering OneElI...
 Calculate potential energy integrals
    NBasis =   7  MinDer = 1  MaxDer = 1
 Requested accuracy = 0.1000D-12
 PrsmSu:  NPrtUS=   1 ThrOK=F IAlg=1 NPAlg=1 LenDen=           0.
 Prism:   IPart=     0 DynPar=F LinDyn=F Incr=           1.
 PRISM was handed    33551962 working-precision words and    10 shell-pairs
 IPart=  0 NShTot=          30 NBatch=          10 AvBLen=         3.0
 PrSmSu:  NxtVal=              2.
 l701 out
 I=    0 X=   5.151681009333D-01 Y=   0.000000000000D+00 Z=   4.321624603301D-01
 I=    1 X=  -2.417321290878D+00 Y=   0.000000000000D+00 Z=  -2.027834243969D+00
 I=    2 X=   1.198221578737D-01 Y=   0.000000000000D+00 Z=   2.311889313818D+00
 I=    3 X=   2.297499133005D+00 Y=   0.000000000000D+00 Z=  -2.840550698495D-01
 ICntrl=      2127.
 Calling FoFJK, ICntrl=      2127 FMM=F ISym2X=0 I1Cent= 0 IOpClX= 0 NMat=1 NMatS=1 NMatT=0.
 FoFJK:  IHMeth= 1 ICntrl=  2127 DoSepK=F KAlg= 1 I1Cent= 0 FoldK=F
 FoFCou: FMM=F IPFlag=           0 FMFlag=      100000 FMFlg1=         800
         NFxFlg=           0 DoJE=F BraDBF=F KetDBF=F FulRan=T
         Omega=  0.000000  0.000000  1.000000  0.000000  0.000000 ICntrl=    2127 IOpCl=  0
         NMat0=    1 NMatS0=    1 NMatT0=    0 NMatD0=    1 NMtDS0=    0 NMtDT0=    0
         I1Cent=           0 NGrid=           0.
 Symmetry not used in FoFCou.
 FoFCou:  KetSym=F NOpSet=  1 NOpAb=1 NOp=  1.
 FoFCou:  CnvScl= 1.00D+00 Thresh= 1.00D-10
 PrismS was handed    33552064 working-precision words and    10 shell-pairs
 FoFCou: LinMIO=F DoNuc=F BraDBF=F KetDBF=F HaveP=T PDBF=F HaveZ=T HaveW=F
         NIJTC =       3 NIJTAt=       0 NIJTCD=       0 NIJTT =       3
         IJTBeg=       1 IJTEnd=       3 KLTBeg=       1 KLTEnd=       3
         IPTBeg=       1 IPTEnd=       3 IPTBCv=       1 IPTECv=       3
         IZTBeg=       1 IZTEnd=       3 IZTBCv=       1 IZTECv=       3
         IWTBeg=       4 IWTEnd=       3 IWTBCv=       4 IWTECv=       3
         INTBeg=       1 INTEnd=       0 IFTBCv=       1 IFTECv=       3
 NCel replicated for PrismC:     1
 CoulSu:  IncDef=  1024 NBBP=             55 NTPThr=   100 NPartT=    1 Incr=           1 LDynOK=F.
 CoulSu:  NPrtUS=   1 ThrOK=F IAlg=1 NPAlg=1 LenDen=           0.
 Enter PrismC: JobTyp=21 DoJE=F Cont=F.
 PrismC:  IPart=     0 DynPar=F LinDyn=F Incr=           1 UseFst=F UseS4=T.
 PrismC was handed    33552031 working-precision words and    10 shell-pairs
 IPart=  0 NShTot=          55 NShNF=          55 NShFF=           0 NBatch=           6 AvBLen=         9.2
 CoulSu:  NxtVal=              2.
 Forces at end of L703
 I=    0 X=   5.151681009333D-01 Y=   0.000000000000D+00 Z=   4.321624603301D-01
 I=    1 X=  -1.280229116931D-04 Y=   0.000000000000D+00 Z=  -1.073954236972D-04
 I=    2 X=   2.601126089348D-05 Y=   0.000000000000D+00 Z=   9.899662153723D-05
 I=    3 X=   1.020116507986D-04 Y=   0.000000000000D+00 Z=   8.398802156862D-06
 FrcOut:
 IF    =    46 IFX   =    55 IFXYZ =    64
 IFFX  =    73 IFFFX =   118 IFLen =     9
 IFFLen=    45 IFFFLn=     0 IEDerv=   118
 LEDerv=   485 IFroze=   607 ICStrt=   761
 FCEst1:  Generated internal coordinate force constants:
                1             2             3             4             5 
      1  0.543896D+00
      2  0.000000D+00  0.100000D+01
      3 -0.320140D-01  0.000000D+00  0.555203D+00
      4 -0.537185D-01  0.000000D+00 -0.450632D-01  0.457605D-01
      5  0.000000D+00  0.000000D+00  0.000000D+00  0.000000D+00  0.100000D+01
      6  0.000000D+00  0.000000D+00 -0.495831D+00  0.000000D+00  0.000000D+00
      7 -0.490177D+00  0.000000D+00  0.770772D-01  0.795802D-02  0.000000D+00
      8  0.000000D+00  0.000000D+00  0.000000D+00  0.000000D+00  0.000000D+00
      9  0.320140D-01  0.000000D+00 -0.593721D-01  0.450632D-01  0.000000D+00
                6             7             8             9 
      6  0.495831D+00
      7  0.000000D+00  0.482219D+00
      8  0.000000D+00  0.000000D+00  0.100000D+01
      9  0.000000D+00 -0.770772D-01  0.000000D+00  0.593721D-01
 Quadrupole    = 3.28631923D-01-7.10582675D-01 3.81950752D-01
                 3.12682205D-16-1.50961934D-01-4.25137087D-17
 -------------------------------------------------------------------
 Center     Atomic                   Forces (Hartrees/Bohr)
 Number     Number              X              Y              Z
 -------------------------------------------------------------------
      1        8           0.000128023    0.000000000    0.000107395
      2        1          -0.000026011    0.000000000   -0.000098997
      3        1          -0.000102012    0.000000000   -0.000008399
 -------------------------------------------------------------------
 Cartesian Forces:  Max     0.000128023 RMS     0.000073694
 From PutF, contents of force:
   1   -0.9899662154D-04
   2   -0.9899662158D-04
   3    0.4863804078D-04
 -----------------------------------------------------------------------------------------------
                       Internal Coordinate Forces (Hartree/Bohr or radian)
  Cent   Atom   N1       Length/X         N2         Alpha/Y        N3         Beta/Z          J
 -----------------------------------------------------------------------------------------------
      1  O 
      2  H        1  -0.000099(     1)
      3  H        1  -0.000099(     2)      2   0.000049(     3)
 -----------------------------------------------------------------------------------------------
 Internal  Forces:  Max     0.000098997 RMS     0.000085569
 Force constants in Cartesian coordinates: 
                1             2             3             4             5 
      1  0.543896D+00
      2  0.000000D+00  0.100000D+01
      3 -0.320140D-01  0.000000D+00  0.555203D+00
      4 -0.537185D-01  0.000000D+00 -0.450632D-01  0.457605D-01
      5  0.000000D+00  0.000000D+00  0.000000D+00  0.000000D+00  0.100000D+01
      6  0.000000D+00  0.000000D+00 -0.495831D+00  0.000000D+00  0.000000D+00
      7 -0.490177D+00  0.000000D+00  0.770772D-01  0.795802D-02  0.000000D+00
      8  0.000000D+00  0.000000D+00  0.000000D+00  0.000000D+00  0.000000D+00
      9  0.320140D-01  0.000000D+00 -0.593721D-01  0.450632D-01  0.000000D+00
                6             7             8             9 
      6  0.495831D+00
      7  0.000000D+00  0.482219D+00
      8  0.000000D+00  0.000000D+00  0.100000D+01
      9  0.000000D+00 -0.770772D-01  0.000000D+00  0.593721D-01
 FCInt: Cartesian first derivatives: 
                 1             2             3 
      1   0.000000D+00  0.000000D+00  0.000000D+00
      2   0.000000D+00  0.000000D+00  0.000000D+00
      3   0.000000D+00  0.000000D+00  0.000000D+00
 FCInt: Cartesian force constants: 
                1             2             3             4             5 
      1  0.543896D+00
      2  0.000000D+00  0.100000D+01
      3 -0.320140D-01  0.000000D+00  0.555203D+00
      4 -0.537185D-01  0.000000D+00 -0.450632D-01  0.457605D-01
      5  0.000000D+00  0.000000D+00  0.000000D+00  0.000000D+00  0.100000D+01
      6  0.000000D+00  0.000000D+00 -0.495831D+00  0.000000D+00  0.000000D+00
      7 -0.490177D+00  0.000000D+00  0.770772D-01  0.795802D-02  0.000000D+00
      8  0.000000D+00  0.000000D+00  0.000000D+00  0.000000D+00  0.000000D+00
      9  0.320140D-01  0.000000D+00 -0.593721D-01  0.450632D-01  0.000000D+00
                6             7             8             9 
      6  0.495831D+00
      7  0.000000D+00  0.482219D+00
      8  0.000000D+00  0.000000D+00  0.100000D+01
      9  0.000000D+00 -0.770772D-01  0.000000D+00  0.593721D-01
 Internal force constants: 
                1             2             3 
      1  0.495831D+00
      2  0.000000D+00  0.495831D+00
      3  0.000000D+00  0.000000D+00  0.160000D+00
 Frcnst in PutFF: 
                1             2             3 
      1  0.495831D+00
      2  0.000000D+00  0.495831D+00
      3  0.000000D+00  0.000000D+00  0.160000D+00
 Force constants in internal coordinates: 
                1             2             3 
      1  0.495831D+00
      2  0.000000D+00  0.495831D+00
      3  0.000000D+00  0.000000D+00  0.160000D+00
 Final forces over variables, Energy=-7.49659012D+01:
 -9.89966215D-05-9.89966216D-05 4.86380408D-05

 GradGradGradGradGradGradGradGradGradGradGradGradGradGradGradGradGradGrad
 Berny optimization.
 Search for a local minimum.
 Step number   1 out of a maximum of   20
 All quantities printed in internal units (Hartrees-Bohrs-Radians)
 Second derivative matrix not updated -- first step.
 The second derivative matrix:
                          R1        R2         A
           R1           0.49583
           R2           0.00000   0.49583
           A            0.00000   0.00000   0.16000
 ITU=  0
 Eigenvectors of the second derivative matrix:
                           1         2         3
     Eigenvalues --     0.16000   0.49583   0.49583
   1         R1         0.00000   0.00000   1.00000
   2         R2         0.00000   1.00000   0.00000
   3         A          1.00000   0.00000   0.00000
 Iter=   1 RLamda= 0.00000000D+00 Sum=-5.43163329D-08.
 Iter=   2 RLamda=-5.43163329D-08 Sum=-5.43163236D-08.
 RFO step:  Lambda=-5.43163329D-08 EMin= 1.60000000D-01
 Linear search not attempted -- first point.
 Variable       Old X    -DE/DX   Delta X   Delta X   Delta X     New X
                                 (Linear)    (Quad)   (Total)
    R1        1.86988  -0.00010   0.00000  -0.00020  -0.00020   1.86968
    R2        1.86988  -0.00010   0.00000  -0.00020  -0.00020   1.86968
    A         1.74559   0.00005   0.00000   0.00030   0.00030   1.74590
         Item               Value     Threshold  Converged?
 Maximum Force            0.000099     0.000002     NO 
 RMS     Force            0.000086     0.000001     NO 
 Maximum Displacement     0.000304     0.000006     NO 
 RMS     Displacement     0.000240     0.000004     NO 
 Predicted change in Energy=-2.715817D-08
 GradGradGradGradGradGradGradGradGradGradGradGradGradGradGradGradGradGrad

 Largest change from initial coordinates is atom    0       0.000 Angstoms.
 ---------------------------------------------------------------------------------------------------
                            Z-MATRIX (ANGSTROMS AND DEGREES)
   CD    Cent   Atom    N1       Length/X        N2       Alpha/Y        N3        Beta/Z          J
 ---------------------------------------------------------------------------------------------------
      1      1  O 
      2      2  H        1   0.989394(     1)
      3      3  H        1   0.989394(     2)      2  100.032(     3)
 ---------------------------------------------------------------------------------------------------
                         Z-Matrix orientation:                         
 ---------------------------------------------------------------------
 Center     Atomic      Atomic             Coordinates (Angstroms)
 Number     Number       Type             X           Y           Z
 ---------------------------------------------------------------------
      1          8           0        0.000000    0.000000    0.000000
      2          1           0        0.000000    0.000000    0.989394
      3          1           0        0.974266    0.000000   -0.172358
 ---------------------------------------------------------------------
 Symmetry turned off by external request.
 Stoichiometry    H2O
 Framework group  C2V[C2(O),SGV(H2)]
 Deg. of freedom     2
 Full point group                 C2V     NOp   4
 Rotational constants (GHZ):    698.5002065    436.2637753    268.5407204
 Standard basis: STO-3G (5D, 7F)
 Integral buffers will be    131072 words long.
 Raffenetti 1 integral format.
 Two-electron integral symmetry is turned off.
     7 basis functions,    21 primitive gaussians,     7 cartesian basis functions
     5 alpha electrons        5 beta electrons
       nuclear repulsion energy         8.9066097003 Hartrees.
 NAtoms=    3 NActive=    3 NUniq=    3 SFac= 1.00D+00 NAtFMM=   50 NAOKFM=F Big=F
 One-electron integrals computed using PRISM.
 NBasis=     7 RedAO= T  NBF=     7
 NBsUse=     7 1.00D-06 NBFU=     7
 Initial guess read from the read-write file.
 B after Tr=     0.000000    0.000000    0.000000
         Rot=    1.000000    0.000000    0.000000    0.000000 Ang=   0.00 deg.
 Requested convergence on RMS density matrix=1.00D-08 within 128 cycles.
 Requested convergence on MAX density matrix=1.00D-06.
 Requested convergence on             energy=1.00D-06.
 No special actions if energy rises.
 Keep R1 ints in memory in canonical form, NReq=820147.
 SCF Done:  E(RHF) =  -74.9659012154     A.U. after    6 cycles
             Convg  =    0.8588D-08             -V/T =  2.0060
 DipInt: DoE/N= T T RetVal/Mat= T F Init=T NMatP=  1 IDeriv=0 Min/MaxMlt=  1  1
 Entering OneElI...
 Multipole integrals L=1 to 1 MinM= 0 MaxM= 0.
 Requested accuracy = 0.1000D-12
 PrsmSu:  NPrtUS=   1 ThrOK=F IAlg=1 NPAlg=1 LenDen=           0.
 Prism:   IPart=     0 DynPar=F LinDyn=F Incr=           1.
 PRISM was handed    33552088 working-precision words and    10 shell-pairs
 IPart=  0 NShTot=          10 NBatch=           3 AvBLen=         3.3
 PrSmSu:  NxtVal=              2.
 Entering OneElI...
 Calculate overlap and kinetic energy integrals
    NBasis =   7  MinDer = 1  MaxDer = 1
 Requested accuracy = 0.1000D-12
 PrsmSu:  NPrtUS=   1 ThrOK=F IAlg=1 NPAlg=1 LenDen=           0.
 Prism:   IPart=     0 DynPar=F LinDyn=F Incr=           1.
 PRISM was handed    33552003 working-precision words and    10 shell-pairs
 IPart=  0 NShTot=          10 NBatch=           3 AvBLen=         3.3
 PrSmSu:  NxtVal=              2.
 Entering OneElI...
 Calculate potential energy integrals
    NBasis =   7  MinDer = 1  MaxDer = 1
 Requested accuracy = 0.1000D-12
 PrsmSu:  NPrtUS=   1 ThrOK=F IAlg=1 NPAlg=1 LenDen=           0.
 Prism:   IPart=     0 DynPar=F LinDyn=F Incr=           1.
 PRISM was handed    33551962 working-precision words and    10 shell-pairs
 IPart=  0 NShTot=          30 NBatch=          10 AvBLen=         3.0
 PrSmSu:  NxtVal=              2.
 l701 out
 I=    0 X=   5.152487991472D-01 Y=   0.000000000000D+00 Z=   4.320967495213D-01
 I=    1 X=  -2.416762981151D+00 Y=   0.000000000000D+00 Z=  -2.026740142835D+00
 I=    2 X=   1.195537720373D-01 Y=   0.000000000000D+00 Z=   2.311730167772D+00
 I=    3 X=   2.297209209114D+00 Y=   0.000000000000D+00 Z=  -2.849900249377D-01
 ICntrl=      2127.
 Calling FoFJK, ICntrl=      2127 FMM=F ISym2X=0 I1Cent= 0 IOpClX= 0 NMat=1 NMatS=1 NMatT=0.
 FoFJK:  IHMeth= 1 ICntrl=  2127 DoSepK=F KAlg= 1 I1Cent= 0 FoldK=F
 FoFCou: FMM=F IPFlag=           0 FMFlag=      100000 FMFlg1=         800
         NFxFlg=           0 DoJE=F BraDBF=F KetDBF=F FulRan=T
         Omega=  0.000000  0.000000  1.000000  0.000000  0.000000 ICntrl=    2127 IOpCl=  0
         NMat0=    1 NMatS0=    1 NMatT0=    0 NMatD0=    1 NMtDS0=    0 NMtDT0=    0
         I1Cent=           0 NGrid=           0.
 Symmetry not used in FoFCou.
 FoFCou:  KetSym=F NOpSet=  1 NOpAb=1 NOp=  1.
 FoFCou:  CnvScl= 1.00D+00 Thresh= 1.00D-10
 PrismS was handed    33552064 working-precision words and    10 shell-pairs
 FoFCou: LinMIO=F DoNuc=F BraDBF=F KetDBF=F HaveP=T PDBF=F HaveZ=T HaveW=F
         NIJTC =       3 NIJTAt=       0 NIJTCD=       0 NIJTT =       3
         IJTBeg=       1 IJTEnd=       3 KLTBeg=       1 KLTEnd=       3
         IPTBeg=       1 IPTEnd=       3 IPTBCv=       1 IPTECv=       3
         IZTBeg=       1 IZTEnd=       3 IZTBCv=       1 IZTECv=       3
         IWTBeg=       4 IWTEnd=       3 IWTBCv=       4 IWTECv=       3
         INTBeg=       1 INTEnd=       0 IFTBCv=       1 IFTECv=       3
 NCel replicated for PrismC:     1
 CoulSu:  IncDef=  1024 NBBP=             55 NTPThr=   100 NPartT=    1 Incr=           1 LDynOK=F.
 CoulSu:  NPrtUS=   1 ThrOK=F IAlg=1 NPAlg=1 LenDen=           0.
 Enter PrismC: JobTyp=21 DoJE=F Cont=F.
 PrismC:  IPart=     0 DynPar=F LinDyn=F Incr=           1 UseFst=F UseS4=T.
 PrismC was handed    33552031 working-precision words and    10 shell-pairs
 IPart=  0 NShTot=          55 NShNF=          55 NShFF=           0 NBatch=           6 AvBLen=         9.2
 CoulSu:  NxtVal=              2.
 Forces at end of L703
 I=    0 X=   5.152487991472D-01 Y=   0.000000000000D+00 Z=   4.320967495213D-01
 I=    1 X=   3.046206746804D-05 Y=   0.000000000000D+00 Z=   2.554619668071D-05
 I=    2 X=  -1.420630201032D-05 Y=   0.000000000000D+00 Z=  -1.399510587730D-05
 I=    3 X=  -1.625576545905D-05 Y=   0.000000000000D+00 Z=  -1.155109080336D-05
 FrcOut:
 IF    =    40 IFX   =    49 IFXYZ =    58
 IFFX  =    67 IFFFX =    67 IFLen =     9
 IFFLen=     0 IFFFLn=     0 IEDerv=    67
 LEDerv=   485 IFroze=   556 ICStrt=   710
 -------------------------------------------------------------------
 Center     Atomic                   Forces (Hartrees/Bohr)
 Number     Number              X              Y              Z
 -------------------------------------------------------------------
      1        8          -0.000030462    0.000000000   -0.000025546
      2        1           0.000014206    0.000000000    0.000013995
      3        1           0.000016256    0.000000000    0.000011551
 -------------------------------------------------------------------
 Cartesian Forces:  Max     0.000030462 RMS     0.000016248
 From PutF, contents of force:
   1    0.1399510588D-04
   2    0.1399494248D-04
   3   -0.2656131223D-04
 -----------------------------------------------------------------------------------------------
                       Internal Coordinate Forces (Hartree/Bohr or radian)
  Cent   Atom   N1       Length/X         N2         Alpha/Y        N3         Beta/Z          J
 -----------------------------------------------------------------------------------------------
      1  O 
      2  H        1   0.000014(     1)
      3  H        1   0.000014(     2)      2  -0.000027(     3)
 -----------------------------------------------------------------------------------------------
 Internal  Forces:  Max     0.000026561 RMS     0.000019124
 Final forces over variables, Energy=-7.49659012D+01:
  1.39951059D-05 1.39949425D-05-2.65613122D-05

 GradGradGradGradGradGradGradGradGradGradGradGradGradGradGradGradGradGrad
 Berny optimization.
 Search for a local minimum.
 Step number   2 out of a maximum of   20
 All quantities printed in internal units (Hartrees-Bohrs-Radians)
 Update second derivatives using D2CorN and points    1    2
 DE= -2.03D-08 DEPred=-2.72D-08 R= 7.49D-01
 Trust test= 7.49D-01 RLast= 4.15D-04 DXMaxT set to 3.00D-01
 The second derivative matrix:
                          R1        R2         A
           R1           0.51206
           R2           0.01623   0.51206
           A           -0.02776  -0.02776   0.20691
 ITU=  0  0
 Eigenvectors of the second derivative matrix:
                           1         2         3
     Eigenvalues --     0.20218   0.49583   0.53302
   1         R1         0.08452  -0.70710   0.70204
   2         R2         0.08452   0.70711   0.70204
   3         A          0.99283   0.00000  -0.11953
 Iter=   1 RLamda= 0.00000000D+00 Sum=-1.03662848D-09.
 RFO step:  Lambda= 0.00000000D+00 EMin= 2.02180234D-01
 Quartic linear search produced a step of -0.20096.
 Variable       Old X    -DE/DX   Delta X   Delta X   Delta X     New X
                                 (Linear)    (Quad)   (Total)
    R1        1.86968   0.00001   0.00004  -0.00002   0.00002   1.86970
    R2        1.86968   0.00001   0.00004  -0.00002   0.00002   1.86970
    A         1.74590  -0.00003  -0.00006  -0.00006  -0.00012   1.74577
         Item               Value     Threshold  Converged?
 Maximum Force            0.000027     0.000002     NO 
 RMS     Force            0.000019     0.000001     NO 
 Maximum Displacement     0.000122     0.000006     NO 
 RMS     Displacement     0.000072     0.000004     NO 
 Predicted change in Energy=-1.913552D-09
 GradGradGradGradGradGradGradGradGradGradGradGradGradGradGradGradGradGrad

 Largest change from initial coordinates is atom    3       0.000 Angstoms.
 ---------------------------------------------------------------------------------------------------
                            Z-MATRIX (ANGSTROMS AND DEGREES)
   CD    Cent   Atom    N1       Length/X        N2       Alpha/Y        N3        Beta/Z          J
 ---------------------------------------------------------------------------------------------------
      1      1  O 
      2      2  H        1   0.989405(     1)
      3      3  H        1   0.989405(     2)      2  100.025(     3)
 ---------------------------------------------------------------------------------------------------
                         Z-Matrix orientation:                         
 ---------------------------------------------------------------------
 Center     Atomic      Atomic             Coordinates (Angstroms)
 Number     Number       Type             X           Y           Z
 ---------------------------------------------------------------------
      1          8           0        0.000000    0.000000    0.000000
      2          1           0        0.000000    0.000000    0.989405
      3          1           0        0.974297    0.000000   -0.172241
 ---------------------------------------------------------------------
 Symmetry turned off by external request.
 Stoichiometry    H2O
 Framework group  C2V[C2(O),SGV(H2)]
 Deg. of freedom     2
 Full point group                 C2V     NOp   4
 Rotational constants (GHZ):    698.3835868    436.2987606    268.5367354
 Standard basis: STO-3G (5D, 7F)
 Integral buffers will be    131072 words long.
 Raffenetti 1 integral format.
 Two-electron integral symmetry is turned off.
     7 basis functions,    21 primitive gaussians,     7 cartesian basis functions
     5 alpha electrons        5 beta electrons
       nuclear repulsion energy         8.9065301183 Hartrees.
 NAtoms=    3 NActive=    3 NUniq=    3 SFac= 1.00D+00 NAtFMM=   50 NAOKFM=F Big=F
 One-electron integrals computed using PRISM.
 NBasis=     7 RedAO= T  NBF=     7
 NBsUse=     7 1.00D-06 NBFU=     7
 Initial guess read from the read-write file.
 B after Tr=     0.000000    0.000000    0.000000
         Rot=    1.000000    0.000000    0.000000    0.000000 Ang=   0.00 deg.
 Requested convergence on RMS density matrix=1.00D-08 within 128 cycles.
 Requested convergence on MAX density matrix=1.00D-06.
 Requested convergence on             energy=1.00D-06.
 No special actions if energy rises.
 Keep R1 ints in memory in canonical form, NReq=820147.
 SCF Done:  E(RHF) =  -74.9659012169     A.U. after    6 cycles
             Convg  =    0.1932D-08             -V/T =  2.0060
 DipInt: DoE/N= T T RetVal/Mat= T F Init=T NMatP=  1 IDeriv=0 Min/MaxMlt=  1  1
 Entering OneElI...
 Multipole integrals L=1 to 1 MinM= 0 MaxM= 0.
 Requested accuracy = 0.1000D-12
 PrsmSu:  NPrtUS=   1 ThrOK=F IAlg=1 NPAlg=1 LenDen=           0.
 Prism:   IPart=     0 DynPar=F LinDyn=F Incr=           1.
 PRISM was handed    33552088 working-precision words and    10 shell-pairs
 IPart=  0 NShTot=          10 NBatch=           3 AvBLen=         3.3
 PrSmSu:  NxtVal=              2.
 Entering OneElI...
 Calculate overlap and kinetic energy integrals
    NBasis =   7  MinDer = 1  MaxDer = 1
 Requested accuracy = 0.1000D-12
 PrsmSu:  NPrtUS=   1 ThrOK=F IAlg=1 NPAlg=1 LenDen=           0.
 Prism:   IPart=     0 DynPar=F LinDyn=F Incr=           1.
 PRISM was handed    33552003 working-precision words and    10 shell-pairs
 IPart=  0 NShTot=          10 NBatch=           3 AvBLen=         3.3
 PrSmSu:  NxtVal=              2.
 Entering OneElI...
 Calculate potential energy integrals
    NBasis =   7  MinDer = 1  MaxDer = 1
 Requested accuracy = 0.1000D-12
 PrsmSu:  NPrtUS=   1 ThrOK=F IAlg=1 NPAlg=1 LenDen=           0.
 Prism:   IPart=     0 DynPar=F LinDyn=F Incr=           1.
 PRISM was handed    33551962 working-precision words and    10 shell-pairs
 IPart=  0 NShTot=          30 NBatch=          10 AvBLen=         3.0
 PrSmSu:  NxtVal=              2.
 l701 out
 I=    0 X=   5.152299143507D-01 Y=   0.000000000000D+00 Z=   4.321343094942D-01
 I=    1 X=  -2.416948078448D+00 Y=   0.000000000000D+00 Z=  -2.027145865921D+00
 I=    2 X=   1.196997603515D-01 Y=   0.000000000000D+00 Z=   2.311708871290D+00
 I=    3 X=   2.297248318096D+00 Y=   0.000000000000D+00 Z=  -2.845630053683D-01
 ICntrl=      2127.
 Calling FoFJK, ICntrl=      2127 FMM=F ISym2X=0 I1Cent= 0 IOpClX= 0 NMat=1 NMatS=1 NMatT=0.
 FoFJK:  IHMeth= 1 ICntrl=  2127 DoSepK=F KAlg= 1 I1Cent= 0 FoldK=F
 FoFCou: FMM=F IPFlag=           0 FMFlag=      100000 FMFlg1=         800
         NFxFlg=           0 DoJE=F BraDBF=F KetDBF=F FulRan=T
         Omega=  0.000000  0.000000  1.000000  0.000000  0.000000 ICntrl=    2127 IOpCl=  0
         NMat0=    1 NMatS0=    1 NMatT0=    0 NMatD0=    1 NMtDS0=    0 NMtDT0=    0
         I1Cent=           0 NGrid=           0.
 Symmetry not used in FoFCou.
 FoFCou:  KetSym=F NOpSet=  1 NOpAb=1 NOp=  1.
 FoFCou:  CnvScl= 1.00D+00 Thresh= 1.00D-10
 PrismS was handed    33552064 working-precision words and    10 shell-pairs
 FoFCou: LinMIO=F DoNuc=F BraDBF=F KetDBF=F HaveP=T PDBF=F HaveZ=T HaveW=F
         NIJTC =       3 NIJTAt=       0 NIJTCD=       0 NIJTT =       3
         IJTBeg=       1 IJTEnd=       3 KLTBeg=       1 KLTEnd=       3
         IPTBeg=       1 IPTEnd=       3 IPTBCv=       1 IPTECv=       3
         IZTBeg=       1 IZTEnd=       3 IZTBCv=       1 IZTECv=       3
         IWTBeg=       4 IWTEnd=       3 IWTBCv=       4 IWTECv=       3
         INTBeg=       1 INTEnd=       0 IFTBCv=       1 IFTECv=       3
 NCel replicated for PrismC:     1
 CoulSu:  IncDef=  1024 NBBP=             55 NTPThr=   100 NPartT=    1 Incr=           1 LDynOK=F.
 CoulSu:  NPrtUS=   1 ThrOK=F IAlg=1 NPAlg=1 LenDen=           0.
 Enter PrismC: JobTyp=21 DoJE=F Cont=F.
 PrismC:  IPart=     0 DynPar=F LinDyn=F Incr=           1 UseFst=F UseS4=T.
 PrismC was handed    33552031 working-precision words and    10 shell-pairs
 IPart=  0 NShTot=          55 NShNF=          55 NShFF=           0 NBatch=           6 AvBLen=         9.2
 CoulSu:  NxtVal=              2.
 Forces at end of L703
 I=    0 X=   5.152299143507D-01 Y=   0.000000000000D+00 Z=   4.321343094942D-01
 I=    1 X=   7.076892982738D-07 Y=   0.000000000000D+00 Z=   5.933128957025D-07
 I=    2 X=   4.292033557701D-06 Y=   0.000000000000D+00 Z=  -5.835779344210D-06
 I=    3 X=  -4.999722856613D-06 Y=   0.000000000000D+00 Z=   5.242466450228D-06
 FrcOut:
 IF    =    40 IFX   =    49 IFXYZ =    58
 IFFX  =    67 IFFFX =    67 IFLen =     9
 IFFLen=     0 IFFFLn=     0 IEDerv=    67
 LEDerv=   485 IFroze=   556 ICStrt=   710
 -------------------------------------------------------------------
 Center     Atomic                   Forces (Hartrees/Bohr)
 Number     Number              X              Y              Z
 -------------------------------------------------------------------
      1        8          -0.000000708    0.000000000   -0.000000593
      2        1          -0.000004292    0.000000000    0.000005836
      3        1           0.000005000    0.000000000   -0.000005242
 -------------------------------------------------------------------
 Cartesian Forces:  Max     0.000005836 RMS     0.000003429
 From PutF, contents of force:
   1    0.5835779344D-05
   2    0.5836017225D-05
   3    0.8024843132D-05
 -----------------------------------------------------------------------------------------------
                       Internal Coordinate Forces (Hartree/Bohr or radian)
  Cent   Atom   N1       Length/X         N2         Alpha/Y        N3         Beta/Z          J
 -----------------------------------------------------------------------------------------------
      1  O 
      2  H        1   0.000006(     1)
      3  H        1   0.000006(     2)      2   0.000008(     3)
 -----------------------------------------------------------------------------------------------
 Internal  Forces:  Max     0.000008025 RMS     0.000006646
 Final forces over variables, Energy=-7.49659012D+01:
  5.83577934D-06 5.83601723D-06 8.02484313D-06

 GradGradGradGradGradGradGradGradGradGradGradGradGradGradGradGradGradGrad
 Berny optimization.
 Search for a local minimum.
 Step number   3 out of a maximum of   20
 All quantities printed in internal units (Hartrees-Bohrs-Radians)
 Update second derivatives using D2CorN and points    1    2    3
 DE= -1.53D-09 DEPred=-1.91D-09 R= 8.01D-01
 Trust test= 8.01D-01 RLast= 1.25D-04 DXMaxT set to 3.00D-01
 The second derivative matrix:
                          R1        R2         A
           R1           0.51334
           R2           0.01751   0.51334
           A           -0.00845  -0.00845   0.27109
 ITU=  0  0  0
 Eigenvectors of the second derivative matrix:
                           1         2         3
     Eigenvalues --     0.27054   0.49583   0.53139
   1         R1         0.03244  -0.70710   0.70636
   2         R2         0.03243   0.70711   0.70636
   3         A          0.99895   0.00000  -0.04587
 Iter=   1 RLamda= 0.00000000D+00 Sum=-2.18848248D-10.
 RFO step:  Lambda= 0.00000000D+00 EMin= 2.70543752D-01
 Quartic linear search produced a step of -0.16247.
 Variable       Old X    -DE/DX   Delta X   Delta X   Delta X     New X
                                 (Linear)    (Quad)   (Total)
    R1        1.86970   0.00001   0.00000   0.00001   0.00001   1.86972
    R2        1.86970   0.00001   0.00000   0.00001   0.00001   1.86972
    A         1.74577   0.00001   0.00002   0.00001   0.00003   1.74580
         Item               Value     Threshold  Converged?
 Maximum Force            0.000008     0.000002     NO 
 RMS     Force            0.000007     0.000001     NO 
 Maximum Displacement     0.000029     0.000006     NO 
 RMS     Displacement     0.000019     0.000004     NO 
 Predicted change in Energy=-1.878409D-10
 GradGradGradGradGradGradGradGradGradGradGradGradGradGradGradGradGradGrad

 Largest change from initial coordinates is atom    3       0.000 Angstoms.
 ---------------------------------------------------------------------------------------------------
                            Z-MATRIX (ANGSTROMS AND DEGREES)
   CD    Cent   Atom    N1       Length/X        N2       Alpha/Y        N3        Beta/Z          J
 ---------------------------------------------------------------------------------------------------
      1      1  O 
      2      2  H        1   0.989411(     1)
      3      3  H        1   0.989411(     2)      2  100.027(     3)
 ---------------------------------------------------------------------------------------------------
                         Z-Matrix orientation:                         
 ---------------------------------------------------------------------
 Center     Atomic      Atomic             Coordinates (Angstroms)
 Number     Number       Type             X           Y           Z
 ---------------------------------------------------------------------
      1          8           0        0.000000    0.000000    0.000000
      2          1           0        0.000000    0.000000    0.989411
      3          1           0        0.974298    0.000000   -0.172271
 ---------------------------------------------------------------------
 Symmetry turned off by external request.
 Stoichiometry    H2O
 Framework group  C2V[C2(O),SGV(H2)]
 Deg. of freedom     2
 Full point group                 C2V     NOp   4
 Rotational constants (GHZ):    698.4004376    436.2831484    268.5333123
 Standard basis: STO-3G (5D, 7F)
 Integral buffers will be    131072 words long.
 Raffenetti 1 integral format.
 Two-electron integral symmetry is turned off.
     7 basis functions,    21 primitive gaussians,     7 cartesian basis functions
     5 alpha electrons        5 beta electrons
       nuclear repulsion energy         8.9064766224 Hartrees.
 NAtoms=    3 NActive=    3 NUniq=    3 SFac= 1.00D+00 NAtFMM=   50 NAOKFM=F Big=F
 One-electron integrals computed using PRISM.
 NBasis=     7 RedAO= T  NBF=     7
 NBsUse=     7 1.00D-06 NBFU=     7
 Initial guess read from the read-write file.
 B after Tr=     0.000000    0.000000    0.000000
         Rot=    1.000000    0.000000    0.000000    0.000000 Ang=   0.00 deg.
 Requested convergence on RMS density matrix=1.00D-08 within 128 cycles.
 Requested convergence on MAX density matrix=1.00D-06.
 Requested convergence on             energy=1.00D-06.
 No special actions if energy rises.
 Keep R1 ints in memory in canonical form, NReq=820147.
 SCF Done:  E(RHF) =  -74.9659012171     A.U. after    5 cycles
             Convg  =    0.4189D-08             -V/T =  2.0060
 DipInt: DoE/N= T T RetVal/Mat= T F Init=T NMatP=  1 IDeriv=0 Min/MaxMlt=  1  1
 Entering OneElI...
 Multipole integrals L=1 to 1 MinM= 0 MaxM= 0.
 Requested accuracy = 0.1000D-12
 PrsmSu:  NPrtUS=   1 ThrOK=F IAlg=1 NPAlg=1 LenDen=           0.
 Prism:   IPart=     0 DynPar=F LinDyn=F Incr=           1.
 PRISM was handed    33552088 working-precision words and    10 shell-pairs
 IPart=  0 NShTot=          10 NBatch=           3 AvBLen=         3.3
 PrSmSu:  NxtVal=              2.
 Entering OneElI...
 Calculate overlap and kinetic energy integrals
    NBasis =   7  MinDer = 1  MaxDer = 1
 Requested accuracy = 0.1000D-12
 PrsmSu:  NPrtUS=   1 ThrOK=F IAlg=1 NPAlg=1 LenDen=           0.
 Prism:   IPart=     0 DynPar=F LinDyn=F Incr=           1.
 PRISM was handed    33552003 working-precision words and    10 shell-pairs
 IPart=  0 NShTot=          10 NBatch=           3 AvBLen=         3.3
 PrSmSu:  NxtVal=              2.
 Entering OneElI...
 Calculate potential energy integrals
    NBasis =   7  MinDer = 1  MaxDer = 1
 Requested accuracy = 0.1000D-12
 PrsmSu:  NPrtUS=   1 ThrOK=F IAlg=1 NPAlg=1 LenDen=           0.
 Prism:   IPart=     0 DynPar=F LinDyn=F Incr=           1.
 PRISM was handed    33551962 working-precision words and    10 shell-pairs
 IPart=  0 NShTot=          30 NBatch=          10 AvBLen=         3.0
 PrSmSu:  NxtVal=              2.
 l701 out
 I=    0 X=   5.152310448648D-01 Y=   0.000000000000D+00 Z=   4.321223136909D-01
 I=    1 X=  -2.416913089338D+00 Y=   0.000000000000D+00 Z=  -2.027055795978D+00
 I=    2 X=   1.196544631347D-01 Y=   0.000000000000D+00 Z=   2.311735867318D+00
 I=    3 X=   2.297258626204D+00 Y=   0.000000000000D+00 Z=  -2.846800713402D-01
 ICntrl=      2127.
 Calling FoFJK, ICntrl=      2127 FMM=F ISym2X=0 I1Cent= 0 IOpClX= 0 NMat=1 NMatS=1 NMatT=0.
 FoFJK:  IHMeth= 1 ICntrl=  2127 DoSepK=F KAlg= 1 I1Cent= 0 FoldK=F
 FoFCou: FMM=F IPFlag=           0 FMFlag=      100000 FMFlg1=         800
         NFxFlg=           0 DoJE=F BraDBF=F KetDBF=F FulRan=T
         Omega=  0.000000  0.000000  1.000000  0.000000  0.000000 ICntrl=    2127 IOpCl=  0
         NMat0=    1 NMatS0=    1 NMatT0=    0 NMatD0=    1 NMtDS0=    0 NMtDT0=    0
         I1Cent=           0 NGrid=           0.
 Symmetry not used in FoFCou.
 FoFCou:  KetSym=F NOpSet=  1 NOpAb=1 NOp=  1.
 FoFCou:  CnvScl= 1.00D+00 Thresh= 1.00D-10
 PrismS was handed    33552064 working-precision words and    10 shell-pairs
 FoFCou: LinMIO=F DoNuc=F BraDBF=F KetDBF=F HaveP=T PDBF=F HaveZ=T HaveW=F
         NIJTC =       3 NIJTAt=       0 NIJTCD=       0 NIJTT =       3
         IJTBeg=       1 IJTEnd=       3 KLTBeg=       1 KLTEnd=       3
         IPTBeg=       1 IPTEnd=       3 IPTBCv=       1 IPTECv=       3
         IZTBeg=       1 IZTEnd=       3 IZTBCv=       1 IZTECv=       3
         IWTBeg=       4 IWTEnd=       3 IWTBCv=       4 IWTECv=       3
         INTBeg=       1 INTEnd=       0 IFTBCv=       1 IFTECv=       3
 NCel replicated for PrismC:     1
 CoulSu:  IncDef=  1024 NBBP=             55 NTPThr=   100 NPartT=    1 Incr=           1 LDynOK=F.
 CoulSu:  NPrtUS=   1 ThrOK=F IAlg=1 NPAlg=1 LenDen=           0.
 Enter PrismC: JobTyp=21 DoJE=F Cont=F.
 PrismC:  IPart=     0 DynPar=F LinDyn=F Incr=           1 UseFst=F UseS4=T.
 PrismC was handed    33552031 working-precision words and    10 shell-pairs
 IPart=  0 NShTot=          55 NShNF=          55 NShFF=           0 NBatch=           6 AvBLen=         9.2
 CoulSu:  NxtVal=              2.
 Forces at end of L703
 I=    0 X=   5.152310448648D-01 Y=   0.000000000000D+00 Z=   4.321223136909D-01
 I=    1 X=  -7.364575518309D-07 Y=   0.000000000000D+00 Z=  -6.181201075428D-07
 I=    2 X=  -8.089581882698D-07 Y=   0.000000000000D+00 Z=   1.712391922037D-06
 I=    3 X=   1.545415740711D-06 Y=   0.000000000000D+00 Z=  -1.094271813273D-06
 FrcOut:
 IF    =    40 IFX   =    49 IFXYZ =    58
 IFFX  =    67 IFFFX =    67 IFLen =     9
 IFFLen=     0 IFFFLn=     0 IEDerv=    67
 LEDerv=   485 IFroze=   556 ICStrt=   710
 -------------------------------------------------------------------
 Center     Atomic                   Forces (Hartrees/Bohr)
 Number     Number              X              Y              Z
 -------------------------------------------------------------------
      1        8           0.000000736    0.000000000    0.000000618
      2        1           0.000000809    0.000000000   -0.000001712
      3        1          -0.000001545    0.000000000    0.000001094
 -------------------------------------------------------------------
 Cartesian Forces:  Max     0.000001712 RMS     0.000000949
 From PutF, contents of force:
   1   -0.1712391922D-05
   2   -0.1712338791D-05
   3   -0.1511623310D-05
 -----------------------------------------------------------------------------------------------
                       Internal Coordinate Forces (Hartree/Bohr or radian)
  Cent   Atom   N1       Length/X         N2         Alpha/Y        N3         Beta/Z          J
 -----------------------------------------------------------------------------------------------
      1  O 
      2  H        1  -0.000002(     1)
      3  H        1  -0.000002(     2)      2  -0.000002(     3)
 -----------------------------------------------------------------------------------------------
 Internal  Forces:  Max     0.000001712 RMS     0.000001648
 Final forces over variables, Energy=-7.49659012D+01:
 -1.71239192D-06-1.71233879D-06-1.51162331D-06

 GradGradGradGradGradGradGradGradGradGradGradGradGradGradGradGradGradGrad
 Berny optimization.
 Search for a local minimum.
 Step number   4 out of a maximum of   20
 All quantities printed in internal units (Hartrees-Bohrs-Radians)
 Update second derivatives using D2CorN and points    1    2    3    4
 DE= -1.39D-10 DEPred=-1.88D-10 R= 7.39D-01
 Trust test= 7.39D-01 RLast= 3.29D-05 DXMaxT set to 3.00D-01
 The second derivative matrix:
                          R1        R2         A
           R1           0.53674
           R2           0.04091   0.53674
           A            0.03489   0.03490   0.31204
 ITU=  0  0  0  0
 Eigenvectors of the second derivative matrix:
                           1         2         3
     Eigenvalues --     0.30317   0.49583   0.58652
   1         R1        -0.12512   0.70711   0.69595
   2         R2        -0.12513  -0.70710   0.69595
   3         A          0.98422   0.00000   0.17695
 Iter=   1 RLamda= 0.00000000D+00 Sum=-6.25481203D-13.
 RFO step:  Lambda= 0.00000000D+00 EMin= 3.03170017D-01
 Quartic linear search produced a step of -0.18266.
 Variable       Old X    -DE/DX   Delta X   Delta X   Delta X     New X
                                 (Linear)    (Quad)   (Total)
    R1        1.86972   0.00000   0.00000   0.00000   0.00000   1.86971
    R2        1.86972   0.00000   0.00000   0.00000   0.00000   1.86971
    A         1.74580   0.00000  -0.00001   0.00000   0.00000   1.74580
         Item               Value     Threshold  Converged?
 Maximum Force            0.000002     0.000002     NO 
 RMS     Force            0.000002     0.000001     NO 
 Maximum Displacement     0.000005     0.000006     YES
 RMS     Displacement     0.000003     0.000004     YES
 Predicted change in Energy=-7.812484D-12
 GradGradGradGradGradGradGradGradGradGradGradGradGradGradGradGradGradGrad

 Largest change from initial coordinates is atom    3       0.000 Angstoms.
 ---------------------------------------------------------------------------------------------------
                            Z-MATRIX (ANGSTROMS AND DEGREES)
   CD    Cent   Atom    N1       Length/X        N2       Alpha/Y        N3        Beta/Z          J
 ---------------------------------------------------------------------------------------------------
      1      1  O 
      2      2  H        1   0.989409(     1)
      3      3  H        1   0.989409(     2)      2  100.027(     3)
 ---------------------------------------------------------------------------------------------------
                         Z-Matrix orientation:                         
 ---------------------------------------------------------------------
 Center     Atomic      Atomic             Coordinates (Angstroms)
 Number     Number       Type             X           Y           Z
 ---------------------------------------------------------------------
      1          8           0        0.000000    0.000000    0.000000
      2          1           0        0.000000    0.000000    0.989409
      3          1           0        0.974297    0.000000   -0.172266
 ---------------------------------------------------------------------
 Symmetry turned off by external request.
 Stoichiometry    H2O
 Framework group  C2V[C2(O),SGV(H2)]
 Deg. of freedom     2
 Full point group                 C2V     NOp   4
 Rotational constants (GHZ):    698.3985685    436.2859693    268.5341046
 Standard basis: STO-3G (5D, 7F)
 Integral buffers will be    131072 words long.
 Raffenetti 1 integral format.
 Two-electron integral symmetry is turned off.
     7 basis functions,    21 primitive gaussians,     7 cartesian basis functions
     5 alpha electrons        5 beta electrons
       nuclear repulsion energy         8.9064892629 Hartrees.
 NAtoms=    3 NActive=    3 NUniq=    3 SFac= 1.00D+00 NAtFMM=   50 NAOKFM=F Big=F
 One-electron integrals computed using PRISM.
 NBasis=     7 RedAO= T  NBF=     7
 NBsUse=     7 1.00D-06 NBFU=     7
 Initial guess read from the read-write file.
 B after Tr=     0.000000    0.000000    0.000000
         Rot=    1.000000    0.000000    0.000000    0.000000 Ang=   0.00 deg.
 Requested convergence on RMS density matrix=1.00D-08 within 128 cycles.
 Requested convergence on MAX density matrix=1.00D-06.
 Requested convergence on             energy=1.00D-06.
 No special actions if energy rises.
 Keep R1 ints in memory in canonical form, NReq=820147.
 SCF Done:  E(RHF) =  -74.9659012171     A.U. after    4 cycles
             Convg  =    0.1265D-08             -V/T =  2.0060
 DipInt: DoE/N= T T RetVal/Mat= T F Init=T NMatP=  1 IDeriv=0 Min/MaxMlt=  1  1
 Entering OneElI...
 Multipole integrals L=1 to 1 MinM= 0 MaxM= 0.
 Requested accuracy = 0.1000D-12
 PrsmSu:  NPrtUS=   1 ThrOK=F IAlg=1 NPAlg=1 LenDen=           0.
 Prism:   IPart=     0 DynPar=F LinDyn=F Incr=           1.
 PRISM was handed    33552088 working-precision words and    10 shell-pairs
 IPart=  0 NShTot=          10 NBatch=           3 AvBLen=         3.3
 PrSmSu:  NxtVal=              2.
 Entering OneElI...
 Calculate overlap and kinetic energy integrals
    NBasis =   7  MinDer = 1  MaxDer = 1
 Requested accuracy = 0.1000D-12
 PrsmSu:  NPrtUS=   1 ThrOK=F IAlg=1 NPAlg=1 LenDen=           0.
 Prism:   IPart=     0 DynPar=F LinDyn=F Incr=           1.
 PRISM was handed    33552003 working-precision words and    10 shell-pairs
 IPart=  0 NShTot=          10 NBatch=           3 AvBLen=         3.3
 PrSmSu:  NxtVal=              2.
 Entering OneElI...
 Calculate potential energy integrals
    NBasis =   7  MinDer = 1  MaxDer = 1
 Requested accuracy = 0.1000D-12
 PrsmSu:  NPrtUS=   1 ThrOK=F IAlg=1 NPAlg=1 LenDen=           0.
 Prism:   IPart=     0 DynPar=F LinDyn=F Incr=           1.
 PRISM was handed    33551962 working-precision words and    10 shell-pairs
 IPart=  0 NShTot=          30 NBatch=          10 AvBLen=         3.0
 PrSmSu:  NxtVal=              2.
 l701 out
 I=    0 X=   5.152310855674D-01 Y=   0.000000000000D+00 Z=   4.321243240122D-01
 I=    1 X=  -2.416917842348D+00 Y=   0.000000000000D+00 Z=  -2.027069044811D+00
 I=    2 X=   1.196619978771D-01 Y=   0.000000000000D+00 Z=   2.311730413519D+00
 I=    3 X=   2.297255844470D+00 Y=   0.000000000000D+00 Z=  -2.846613687081D-01
 ICntrl=      2127.
 Calling FoFJK, ICntrl=      2127 FMM=F ISym2X=0 I1Cent= 0 IOpClX= 0 NMat=1 NMatS=1 NMatT=0.
 FoFJK:  IHMeth= 1 ICntrl=  2127 DoSepK=F KAlg= 1 I1Cent= 0 FoldK=F
 FoFCou: FMM=F IPFlag=           0 FMFlag=      100000 FMFlg1=         800
         NFxFlg=           0 DoJE=F BraDBF=F KetDBF=F FulRan=T
         Omega=  0.000000  0.000000  1.000000  0.000000  0.000000 ICntrl=    2127 IOpCl=  0
         NMat0=    1 NMatS0=    1 NMatT0=    0 NMatD0=    1 NMtDS0=    0 NMtDT0=    0
         I1Cent=           0 NGrid=           0.
 Symmetry not used in FoFCou.
 FoFCou:  KetSym=F NOpSet=  1 NOpAb=1 NOp=  1.
 FoFCou:  CnvScl= 1.00D+00 Thresh= 1.00D-10
 PrismS was handed    33552064 working-precision words and    10 shell-pairs
 FoFCou: LinMIO=F DoNuc=F BraDBF=F KetDBF=F HaveP=T PDBF=F HaveZ=T HaveW=F
         NIJTC =       3 NIJTAt=       0 NIJTCD=       0 NIJTT =       3
         IJTBeg=       1 IJTEnd=       3 KLTBeg=       1 KLTEnd=       3
         IPTBeg=       1 IPTEnd=       3 IPTBCv=       1 IPTECv=       3
         IZTBeg=       1 IZTEnd=       3 IZTBCv=       1 IZTECv=       3
         IWTBeg=       4 IWTEnd=       3 IWTBCv=       4 IWTECv=       3
         INTBeg=       1 INTEnd=       0 IFTBCv=       1 IFTECv=       3
 NCel replicated for PrismC:     1
 CoulSu:  IncDef=  1024 NBBP=             55 NTPThr=   100 NPartT=    1 Incr=           1 LDynOK=F.
 CoulSu:  NPrtUS=   1 ThrOK=F IAlg=1 NPAlg=1 LenDen=           0.
 Enter PrismC: JobTyp=21 DoJE=F Cont=F.
 PrismC:  IPart=     0 DynPar=F LinDyn=F Incr=           1 UseFst=F UseS4=T.
 PrismC was handed    33552031 working-precision words and    10 shell-pairs
 IPart=  0 NShTot=          55 NShNF=          55 NShFF=           0 NBatch=           6 AvBLen=         9.2
 CoulSu:  NxtVal=              2.
 Forces at end of L703
 I=    0 X=   5.152310855674D-01 Y=   0.000000000000D+00 Z=   4.321243240122D-01
 I=    1 X=   1.449443054469D-08 Y=   0.000000000000D+00 Z=   1.250465819780D-08
 I=    2 X=   0.000000000000D+00 Y=   0.000000000000D+00 Z=  -2.492633388584D-08
 I=    3 X=  -2.291763223639D-08 Y=   0.000000000000D+00 Z=   1.242167607662D-08
 FrcOut:
 IF    =    40 IFX   =    49 IFXYZ =    58
 IFFX  =    67 IFFFX =    67 IFLen =     9
 IFFLen=     0 IFFFLn=     0 IEDerv=    67
 LEDerv=   485 IFroze=   556 ICStrt=   710
 -------------------------------------------------------------------
 Center     Atomic                   Forces (Hartrees/Bohr)
 Number     Number              X              Y              Z
 -------------------------------------------------------------------
      1        8          -0.000000014    0.000000000   -0.000000013
      2        1          -0.000000008    0.000000000    0.000000025
      3        1           0.000000023    0.000000000   -0.000000012
 -------------------------------------------------------------------
 Cartesian Forces:  Max     0.000000025 RMS     0.000000014
 From PutF, contents of force:
   1    0.2492633389D-07
   2    0.2473033219D-07
   3    0.1540971869D-07
 -----------------------------------------------------------------------------------------------
                       Internal Coordinate Forces (Hartree/Bohr or radian)
  Cent   Atom   N1       Length/X         N2         Alpha/Y        N3         Beta/Z          J
 -----------------------------------------------------------------------------------------------
      1  O 
      2  H        1   0.000000(     1)
      3  H        1   0.000000(     2)      2   0.000000(     3)
 -----------------------------------------------------------------------------------------------
 Internal  Forces:  Max     0.000000025 RMS     0.000000022
 Final forces over variables, Energy=-7.49659012D+01:
  2.49263339D-08 2.47303322D-08 1.54097187D-08

 GradGradGradGradGradGradGradGradGradGradGradGradGradGradGradGradGradGrad
 Berny optimization.
 Search for a local minimum.
 Step number   5 out of a maximum of   20
 All quantities printed in internal units (Hartrees-Bohrs-Radians)
 Update second derivatives using D2CorN and points    2    3    5
 DE= -7.57D-12 DEPred=-7.81D-12 R= 9.70D-01
 Trust test= 9.70D-01 RLast= 5.74D-06 DXMaxT set to 3.00D-01
 The second derivative matrix:
                          R1        R2         A
           R1           0.54406
           R2           0.04823   0.54406
           A            0.04028   0.04028   0.29973
 ITU=  0  0  0  0
 Eigenvectors of the second derivative matrix:
                           1         2         3
     Eigenvalues --     0.28903   0.49583   0.60299
   1         R1        -0.13052   0.70712   0.69494
   2         R2        -0.13054  -0.70709   0.69496
   3         A          0.98281  -0.00001   0.18460
 Iter=   1 RLamda= 0.00000000D+00 Sum=-2.57366616D-15.
 RFO step:  Lambda= 0.00000000D+00 EMin= 2.89030405D-01
 Skip linear search -- no minimum in search direction.
 Variable       Old X    -DE/DX   Delta X   Delta X   Delta X     New X
                                 (Linear)    (Quad)   (Total)
    R1        1.86971   0.00000   0.00000   0.00000   0.00000   1.86971
    R2        1.86971   0.00000   0.00000   0.00000   0.00000   1.86971
    A         1.74580   0.00000   0.00000   0.00000   0.00000   1.74580
         Item               Value     Threshold  Converged?
 Maximum Force            0.000000     0.000002     YES
 RMS     Force            0.000000     0.000001     YES
 Maximum Displacement     0.000000     0.000006     YES
 RMS     Displacement     0.000000     0.000004     YES
 Predicted change in Energy=-1.286833D-15
 Optimization completed.
    -- Stationary point found.
                       ----------------------------
                       !   Optimized Parameters   !
                       ! (Angstroms and Degrees)  !
 ----------------------                            ----------------------
 !      Name          Value   Derivative information (Atomic Units)     !
 ------------------------------------------------------------------------
 !       R1          0.9894   -DE/DX =    0.0                           !
 !       R2          0.9894   -DE/DX =    0.0                           !
 !        A        100.0269   -DE/DX =    0.0                           !
 ------------------------------------------------------------------------
 GradGradGradGradGradGradGradGradGradGradGradGradGradGradGradGradGradGrad

 Largest change from initial coordinates is atom    3       0.000 Angstoms.
 ---------------------------------------------------------------------------------------------------
                            Z-MATRIX (ANGSTROMS AND DEGREES)
   CD    Cent   Atom    N1       Length/X        N2       Alpha/Y        N3        Beta/Z          J
 ---------------------------------------------------------------------------------------------------
      1      1  O 
      2      2  H        1   0.989409(     1)
      3      3  H        1   0.989409(     2)      2  100.027(     3)
 ---------------------------------------------------------------------------------------------------
                         Z-Matrix orientation:                         
 ---------------------------------------------------------------------
 Center     Atomic      Atomic             Coordinates (Angstroms)
 Number     Number       Type             X           Y           Z
 ---------------------------------------------------------------------
      1          8           0        0.000000    0.000000    0.000000
      2          1           0        0.000000    0.000000    0.989409
      3          1           0        0.974297    0.000000   -0.172266
 ---------------------------------------------------------------------
 Symmetry turned off by external request.
 Stoichiometry    H2O
 Framework group  C2V[C2(O),SGV(H2)]
 Deg. of freedom     2
 Full point group                 C2V     NOp   4
 Rotational constants (GHZ):    698.3985685    436.2859693    268.5341046

 **********************************************************************

            Population analysis using the SCF density.

 **********************************************************************

 Alpha  occ. eigenvalues --  -20.25158  -1.25755  -0.59386  -0.45973  -0.39262
 Alpha virt. eigenvalues --    0.58179   0.69267
          Condensed to atoms (all electrons):
              1          2          3
     1  O    7.822767   0.253881   0.253881
     2  H    0.253881   0.626253  -0.045400
     3  H    0.253881  -0.045400   0.626253
 Mulliken atomic charges:
              1
     1  O   -0.330530
     2  H    0.165265
     3  H    0.165265
 Sum of Mulliken atomic charges =   0.00000
 Mulliken charges with hydrogens summed into heavy atoms:
              1
     1  O    0.000000
 Sum of Mulliken charges with hydrogens summed into heavy atoms =   0.00000
 Electronic spatial extent (au):  <R**2>=             18.5228
 Charge=              0.0000 electrons
 Dipole moment (field-independent basis, Debye):
    X=              1.3096    Y=              0.0000    Z=              1.0984  Tot=              1.7092
 Quadrupole moment (field-independent basis, Debye-Ang):
   XX=             -4.7280   YY=             -6.1257   ZZ=             -4.6561
   XY=              0.0000   XZ=             -0.2033   YZ=              0.0000
 Traceless Quadrupole moment (field-independent basis, Debye-Ang):
   XX=              0.4419   YY=             -0.9557   ZZ=              0.5138
   XY=              0.0000   XZ=             -0.2033   YZ=              0.0000
 Octapole moment (field-independent basis, Debye-Ang**2):
  XXX=             -0.8363  YYY=              0.0000  ZZZ=             -0.5157  XYY=             -0.6115
  XXY=              0.0000  XXZ=             -0.6514  XZZ=             -0.5552  YZZ=              0.0000
  YYZ=             -0.5129  XYZ=              0.0000
 Hexadecapole moment (field-independent basis, Debye-Ang**3):
 XXXX=             -5.5284 YYYY=             -3.2653 ZZZZ=             -5.7198 XXXY=              0.0000
 XXXZ=              0.1716 YYYX=              0.0000 YYYZ=              0.0000 ZZZX=              0.3696
 ZZZY=              0.0000 XXYY=             -1.6648 XXZZ=             -2.2362 YYZZ=             -1.7074
 XXYZ=              0.0000 YYXZ=              0.1205 ZZXY=              0.0000
 N-N= 8.906489262942D+00 E-N=-1.963527344265D+02  KE= 7.451860955482D+01

 Test job not archived.
 1\1\GINC-KRUCK\POpt\RHF\STO-3G\H2O1\LAUVERGN\07-Aug-2016\1\\#n freq=no
 raman hf sto-3g opt=(z-matrix,verytight) # nosymm scf=tight FormCheck=
 All # integral=(grid=ultrafine) # iop(1/18=40,2/9=111,2/11=1,7/33=1,1/
 33=1) # iop(3/27=30,11/27=30)\\xx\\0,1\O\H,1,R1\H,1,R2,2,A\\R1=0.98940
 93\R2=0.9894093\A=100.026877\\Version=EM64M-G09RevB.01\HF=-74.9659012\
 RMSD=1.265e-09\RMSF=1.390e-08\Dipole=0.5152311,0.,0.4321243\Quadrupole
 =0.3285532,-0.7105631,0.38201,0.,-0.1511697,0.\PG=C02V [C2(O1),SGV(H2)
 ]\\@


 THE UNDERLYING PHYSICAL LAWS NECESSARY FOR THE 
 MATHEMATICAL THEORY OF A LARGE PART OF PHYSICS AND THE
 WHOLE OF CHEMISTRY ARE THUS COMPLETELY KNOWN, AND THE
 DIFFICULTY IS ONLY THAT THE EXACT APPLICATION OF THESE
 LAWS LEADS TO EQUATIONS MUCH TOO COMPLICATED 
 TO BE SOLUBLE.

                                        -- P. A. M. DIRAC, 1929
 Job cpu time:  0 days  0 hours  0 minutes  3.3 seconds.
 File lengths (MBytes):  RWF=      5 Int=      0 D2E=      0 Chk=      1 Scr=      1
 Normal termination of Gaussian 09 at Sun Aug  7 12:15:23 2016.
 Link1:  Proceeding to internal job step number  2.
 --------------------------------------------------------------------
 #N Geom=AllCheck Guess=TCheck SCRF=Check Test GenChk RHF/STO-3G Freq
 --------------------------------------------------------------------
 1/7=1,10=4,29=7,30=1,38=1,40=1/1,3;
 2/12=2,15=1,40=1/2;
 3/6=3,11=1,14=-4,16=1,25=1,30=1,70=2,71=2,75=-5,116=1/1,2,3;
 4/5=101/1;
 5/5=2,32=2,98=1/2;
 8/6=4,10=90,11=11/1;
 11/6=1,8=1,9=11,15=111,16=1,31=1/1,2,10;
 10/6=1,31=1/2;
 6/7=2,8=2,9=2,10=2,18=1,28=1/1;
 7/8=1,10=1,25=1,30=1/1,2,3,16;
 1/7=1,10=4,30=1/3;
 99//99;
 --
 xx
 --
 Z-Matrix taken from the checkpoint file:
 xx.chk
 Charge =  0 Multiplicity = 1
 O
 H,1,R1
 H,1,R2,2,A
      Variables:
 R1=0.9894093
 R2=0.9894093
 A=100.026877
 Recover connectivity data from disk.

 GradGradGradGradGradGradGradGradGradGradGradGradGradGradGradGradGradGrad
 Berny optimization.
 Initialization pass.
                       ----------------------------
                       !    Initial Parameters    !
                       ! (Angstroms and Degrees)  !
 ----------------------                            ----------------------
 !      Name          Value   Derivative information (Atomic Units)     !
 ------------------------------------------------------------------------
 !       R1          0.9894   calculate D2E/DX2 analytically            !
 !       R2          0.9894   calculate D2E/DX2 analytically            !
 !        A        100.0269   calculate D2E/DX2 analytically            !
 ------------------------------------------------------------------------
 Trust Radius=3.00D-01 FncErr=1.00D-07 GrdErr=1.00D-07
 Number of steps in this run=      2 maximum allowed number of steps=      2.
 GradGradGradGradGradGradGradGradGradGradGradGradGradGradGradGradGradGrad

                          Input orientation:                          
 ---------------------------------------------------------------------
 Center     Atomic      Atomic             Coordinates (Angstroms)
 Number     Number       Type             X           Y           Z
 ---------------------------------------------------------------------
      1          8           0        0.000000    0.000000    0.000000
      2          1           0        0.000000    0.000000    0.989409
      3          1           0        0.974297    0.000000   -0.172266
 ---------------------------------------------------------------------
                    Distance matrix (angstroms):
                    1          2          3
     1  O    0.000000
     2  H    0.989409   0.000000
     3  H    0.989409   1.516161   0.000000
 Symmetry turned off by external request.
 Stoichiometry    H2O
 Framework group  C2V[C2(O),SGV(H2)]
 Deg. of freedom     2
 Full point group                 C2V     NOp   4
 Rotational constants (GHZ):    698.3985685    436.2859693    268.5341046
 Standard basis: STO-3G (5D, 7F)
 Integral buffers will be    131072 words long.
 Raffenetti 1 integral format.
 Two-electron integral symmetry is turned off.
     7 basis functions,    21 primitive gaussians,     7 cartesian basis functions
     5 alpha electrons        5 beta electrons
       nuclear repulsion energy         8.9064892629 Hartrees.
 NAtoms=    3 NActive=    3 NUniq=    3 SFac= 1.00D+00 NAtFMM=   50 NAOKFM=F Big=F
 One-electron integrals computed using PRISM.
 NBasis=     7 RedAO= T  NBF=     7
 NBsUse=     7 1.00D-06 NBFU=     7
 Initial guess read from the checkpoint file:  xx.chk
 B after Tr=     0.000000    0.000000    0.000000
         Rot=    1.000000    0.000000    0.000000    0.000000 Ang=   0.00 deg.
 Requested convergence on RMS density matrix=1.00D-08 within 128 cycles.
 Requested convergence on MAX density matrix=1.00D-06.
 Requested convergence on             energy=1.00D-06.
 No special actions if energy rises.
 Keep R1 ints in memory in canonical form, NReq=820147.
 SCF Done:  E(RHF) =  -74.9659012171     A.U. after    1 cycles
             Convg  =    0.3872D-09             -V/T =  2.0060
 Range of M.O.s used for correlation:     1     7
 NBasis=     7 NAE=     5 NBE=     5 NFC=     0 NFV=     0
 NROrb=      7 NOA=     5 NOB=     5 NVA=     2 NVB=     2
 Symmetrizing basis deriv contribution to polar:
 IMax=3 JMax=2 DiffMx= 0.00D+00
 G2DrvN: will do     4 centers at a time, making    1 passes doing MaxLOS=1.
 Calling FoFCou, ICntrl=  3107 FMM=F I1Cent=   0 AccDes= 0.00D+00.
 FoFDir/FoFCou used for L=0 through L=1.
 End of G2Drv Frequency-dependent properties file   721 does not exist.
 End of G2Drv Frequency-dependent properties file   722 does not exist.
          IDoAtm=111
          Differentiating once with respect to electric field.
                with respect to dipole field.
          Differentiating once with respect to nuclear coordinates.
          Keep R1 ints in memory in canonical form, NReq=800805.
          There are    12 degrees of freedom in the 1st order CPHF.  IDoFFX=5.
      8 vectors produced by pass  0 Test12= 8.33D-17 8.33D-09 XBig12= 7.24D-01 5.29D-01.
 AX will form     8 AO Fock derivatives at one time.
      2 vectors produced by pass  1 Test12= 8.33D-17 8.33D-09 XBig12= 1.69D-04 1.03D-02.
 Inverted reduced A of dimension    10 with in-core refinement.
 Isotropic polarizability for W=    0.000000        2.70 Bohr**3.
 End of Minotr Frequency-dependent properties file   721 does not exist.
 End of Minotr Frequency-dependent properties file   722 does not exist.

 **********************************************************************

            Population analysis using the SCF density.

 **********************************************************************

 Alpha  occ. eigenvalues --  -20.25158  -1.25755  -0.59386  -0.45973  -0.39262
 Alpha virt. eigenvalues --    0.58179   0.69267
          Condensed to atoms (all electrons):
              1          2          3
     1  O    7.822767   0.253881   0.253881
     2  H    0.253881   0.626253  -0.045400
     3  H    0.253881  -0.045400   0.626253
 Mulliken atomic charges:
              1
     1  O   -0.330530
     2  H    0.165265
     3  H    0.165265
 Sum of Mulliken atomic charges =   0.00000
 Mulliken charges with hydrogens summed into heavy atoms:
              1
     1  O    0.000000
 Sum of Mulliken charges with hydrogens summed into heavy atoms =   0.00000
 APT atomic charges:
              1
     1  O   -0.169100
     2  H    0.084550
     3  H    0.084550
 Sum of APT charges=   0.00000
 APT Atomic charges with hydrogens summed into heavy atoms:
              1
     1  O    0.000000
     2  H    0.000000
     3  H    0.000000
 Sum of APT charges=   0.00000
 Electronic spatial extent (au):  <R**2>=             18.5228
 Charge=              0.0000 electrons
 Dipole moment (field-independent basis, Debye):
    X=              1.3096    Y=              0.0000    Z=              1.0984  Tot=              1.7092
 Quadrupole moment (field-independent basis, Debye-Ang):
   XX=             -4.7280   YY=             -6.1257   ZZ=             -4.6561
   XY=              0.0000   XZ=             -0.2033   YZ=              0.0000
 Traceless Quadrupole moment (field-independent basis, Debye-Ang):
   XX=              0.4419   YY=             -0.9557   ZZ=              0.5138
   XY=              0.0000   XZ=             -0.2033   YZ=              0.0000
 Octapole moment (field-independent basis, Debye-Ang**2):
  XXX=             -0.8363  YYY=              0.0000  ZZZ=             -0.5157  XYY=             -0.6115
  XXY=              0.0000  XXZ=             -0.6514  XZZ=             -0.5552  YZZ=              0.0000
  YYZ=             -0.5129  XYZ=              0.0000
 Hexadecapole moment (field-independent basis, Debye-Ang**3):
 XXXX=             -5.5284 YYYY=             -3.2653 ZZZZ=             -5.7198 XXXY=              0.0000
 XXXZ=              0.1716 YYYX=              0.0000 YYYZ=              0.0000 ZZZX=              0.3696
 ZZZY=              0.0000 XXYY=             -1.6648 XXZZ=             -2.2362 YYZZ=             -1.7074
 XXYZ=              0.0000 YYXZ=              0.1205 ZZXY=              0.0000
 N-N= 8.906489262942D+00 E-N=-1.963527344273D+02  KE= 7.451860955563D+01
  Exact polarizability:   3.781   0.000   0.040  -1.449   0.000   4.293
 Approx polarizability:   3.156   0.000   0.020  -0.656   0.000   3.388
 Calling FoFJK, ICntrl=    100127 FMM=F ISym2X=0 I1Cent= 0 IOpClX= 0 NMat=1 NMatS=1 NMatT=0.
 Full mass-weighted force constant matrix:
 Low frequencies ---   -0.6627   -0.6046   -0.5038    0.0011    0.0012    0.0017
 Low frequencies --- 2170.0459 4140.0022 4391.0669
 Harmonic frequencies (cm**-1), IR intensities (KM/Mole), Raman scattering
 activities (A**4/AMU), depolarization ratios for plane and unpolarized
 incident light, reduced masses (AMU), force constants (mDyne/A),
 and normal coordinates:
                     1                      2                      3
                     A                      A                      A
 Frequencies --  2170.0459              4140.0022              4391.0669
 Red. masses --     1.0785                 1.0491                 1.0774
 Frc consts  --     2.9923                10.5941                12.2392
 IR Inten    --     7.2377                44.2870                29.9720
  Atom  AN      X      Y      Z        X      Y      Z        X      Y      Z
     1   8     0.05   0.00   0.04     0.04   0.00   0.03    -0.04   0.00   0.05
     2   1    -0.71   0.00  -0.01     0.05   0.00  -0.70     0.00   0.00  -0.71
     3   1    -0.13   0.00  -0.69    -0.69   0.00   0.17     0.69   0.00  -0.12

 -------------------
 - Thermochemistry -
 -------------------
 Temperature   298.150 Kelvin.  Pressure   1.00000 Atm.
 Atom     1 has atomic number  8 and mass  15.99491
 Atom     2 has atomic number  1 and mass   1.00783
 Atom     3 has atomic number  1 and mass   1.00783
 Molecular mass:    18.01056 amu.
 Principal axes and moments of inertia in atomic units:
                           1         2         3
     Eigenvalues --     2.58411   4.13660   6.72072
           X           -0.64261   0.76620   0.00000
           Y            0.00000   0.00000   1.00000
           Z            0.76620   0.64261   0.00000
 This molecule is an asymmetric top.
 Rotational symmetry number  2.
 Rotational temperatures (Kelvin)     33.51780    20.93840    12.88759
 Rotational constants (GHZ):         698.39857   436.28597   268.53410
 Zero-point vibrational energy      64006.9 (Joules/Mol)
                                   15.29801 (Kcal/Mol)
 Vibrational temperatures:   3122.21  5956.53  6317.76
          (Kelvin)
 
 Zero-point correction=                           0.024379 (Hartree/Particle)
 Thermal correction to Energy=                    0.027212
 Thermal correction to Enthalpy=                  0.028156
 Thermal correction to Gibbs Free Energy=         0.006641
 Sum of electronic and zero-point Energies=            -74.941522
 Sum of electronic and thermal Energies=               -74.938689
 Sum of electronic and thermal Enthalpies=             -74.937745
 Sum of electronic and thermal Free Energies=          -74.959260
 
                     E (Thermal)             CV                S
                      KCal/Mol        Cal/Mol-Kelvin    Cal/Mol-Kelvin
 Total                   17.076              5.968             45.282
 Electronic               0.000              0.000              0.000
 Translational            0.889              2.981             34.608
 Rotational               0.889              2.981             10.673
 Vibrational             15.298              0.006              0.001
                       Q            Log10(Q)             Ln(Q)
 Total Bot       0.881563D-03         -3.054747         -7.033815
 Total V=0       0.144132D+09          8.158760         18.786240
 Vib (Bot)       0.611653D-11        -11.213495        -25.820026
 Vib (V=0)       0.100003D+01          0.000012          0.000028
 Electronic      0.100000D+01          0.000000          0.000000
 Translational   0.300432D+07          6.477746         14.915562
 Rotational      0.479735D+02          1.681002          3.870650
 -------------------------------------------------------------------
 Center     Atomic                   Forces (Hartrees/Bohr)
 Number     Number              X              Y              Z
 -------------------------------------------------------------------
      1        8          -0.000000015    0.000000000   -0.000000013
      2        1          -0.000000008    0.000000000    0.000000025
      3        1           0.000000023    0.000000000   -0.000000012
 -------------------------------------------------------------------
 Cartesian Forces:  Max     0.000000025 RMS     0.000000014
 -----------------------------------------------------------------------------------------------
                       Internal Coordinate Forces (Hartree/Bohr or radian)
  Cent   Atom   N1       Length/X         N2         Alpha/Y        N3         Beta/Z          J
 -----------------------------------------------------------------------------------------------
      1  O 
      2  H        1   0.000000(     1)
      3  H        1   0.000000(     2)      2   0.000000(     3)
 -----------------------------------------------------------------------------------------------
 Internal  Forces:  Max     0.000000025 RMS     0.000000022

 GradGradGradGradGradGradGradGradGradGradGradGradGradGradGradGradGradGrad
 Berny optimization.
 Search for a local minimum.
 Step number   1 out of a maximum of    2
 All quantities printed in internal units (Hartrees-Bohrs-Radians)
 Second derivative matrix not updated -- analytic derivatives used.
 The second derivative matrix:
                          R1        R2         A
           R1           0.65409
           R2          -0.03064   0.65409
           A            0.03770   0.03770   0.29689
 ITU=  0
     Eigenvalues ---    0.28840   0.63193   0.68473
 Angle between quadratic step and forces=  90.00 degrees.
 Linear search not attempted -- first point.
 Variable       Old X    -DE/DX   Delta X   Delta X   Delta X     New X
                                 (Linear)    (Quad)   (Total)
    R1        1.86971   0.00000   0.00000   0.00000   0.00000   1.86971
    R2        1.86971   0.00000   0.00000   0.00000   0.00000   1.86971
    A         1.74580   0.00000   0.00000   0.00000   0.00000   1.74580
         Item               Value     Threshold  Converged?
 Maximum Force            0.000000     0.000002     YES
 RMS     Force            0.000000     0.000001     YES
 Maximum Displacement     0.000000     0.000006     YES
 RMS     Displacement     0.000000     0.000004     YES
 Predicted change in Energy=-1.250765D-15
 Optimization completed.
    -- Stationary point found.
                       ----------------------------
                       !   Optimized Parameters   !
                       ! (Angstroms and Degrees)  !
 ----------------------                            ----------------------
 !      Name          Value   Derivative information (Atomic Units)     !
 ------------------------------------------------------------------------
 !       R1          0.9894   -DE/DX =    0.0                           !
 !       R2          0.9894   -DE/DX =    0.0                           !
 !        A        100.0269   -DE/DX =    0.0                           !
 ------------------------------------------------------------------------
 GradGradGradGradGradGradGradGradGradGradGradGradGradGradGradGradGradGrad


 Test job not archived.
 1\1\GINC-KRUCK\Freq\RHF\STO-3G\H2O1\LAUVERGN\07-Aug-2016\1\\#N Geom=Al
 lCheck Guess=TCheck SCRF=Check Test GenChk RHF/STO-3G Freq\\xx\\0,1\O\
 H,1,R1\H,1,R2,2,A\\R1=0.9894093\R2=0.9894093\A=100.026877\\Version=EM6
 4M-G09RevB.01\HF=-74.9659012\RMSD=3.872e-10\RMSF=1.405e-08\ZeroPoint=0
 .0243789\Thermal=0.0272118\Dipole=0.5152311,0.,0.4321243\DipoleDeriv=0
 .0361747,0.,0.056465,0.,-0.5596825,0.,0.056465,0.,0.0162074,0.168372,0
 .,-0.0934892,0.,0.2798412,0.,-0.0289118,0.,-0.1945631,-0.2045467,0.,0.
 0370242,0.,0.2798412,0.,-0.0275532,0.,0.1783556\Polar=3.780856,0.,0.04
 00608,-1.4486011,0.,4.2931124\HyperPolar=8.5066585,0.,-0.0584167,0.,-1
 .8778813,0.,-0.0489941,0.0185124,0.,9.0279424\PG=C02V [C2(O1),SGV(H2)]
 \NImag=0\\0.70470860,0.,-0.00000002,-0.08323446,0.,0.73414209,-0.07985
 654,0.,-0.06697569,0.08492571,0.,0.,0.,0.,-0.00000001,0.05384910,0.,-0
 .63956881,-0.02016358,0.,0.65408918,-0.62485207,0.,0.15021014,-0.00506
 918,0.,-0.03368552,0.62992124,0.,0.,0.,0.,0.,0.,0.,-0.00000001,0.02938
 535,0.,-0.09457328,0.08713927,0.,-0.01452037,-0.11652462,0.,0.10909365
 \\0.00000002,0.,0.00000001,0.,0.,-0.00000003,-0.00000002,0.,0.00000001
 \\\@


 ACCORDING TO HEN3RY, LIFE IS MUCH LIKE A SEWER........
 YOU GET OUT OF IT JUST WHAT YOU PUT INTO IT...........
                         TOM LEHRER - (THE 3 IS SILENT)
 Job cpu time:  0 days  0 hours  0 minutes  1.2 seconds.
 File lengths (MBytes):  RWF=      5 Int=      0 D2E=      0 Chk=      1 Scr=      1
 Normal termination of Gaussian 09 at Sun Aug  7 12:15:24 2016.
