xx                                                                      
Freq      RHF                                                         STO-3G              
Number of atoms                            I                3
Info1-9                                    I   N=           9
          18          18        1002           0           0         101
           6           1           2
Charge                                     I                0
Multiplicity                               I                1
Number of electrons                        I               10
Number of alpha electrons                  I                5
Number of beta electrons                   I                5
Number of basis functions                  I                7
Number of independent functions            I                7
Number of point charges in /Mol/           I                0
Number of translation vectors              I                0
Atomic numbers                             I   N=           3
           8           1           1
Nuclear charges                            R   N=           3
  8.00000000E+00  1.00000000E+00  1.00000000E+00
Current cartesian coordinates              R   N=           9
  0.00000000E+00  0.00000000E+00  0.00000000E+00  0.00000000E+00  0.00000000E+00
  1.86971260E+00  1.84115496E+00  0.00000000E+00 -3.25535894E-01
Force Field                                I                0
Int Atom Types                             I   N=           3
           0           0           0
MM charges                                 R   N=           3
  0.00000000E+00  0.00000000E+00  0.00000000E+00
Integer atomic weights                     I   N=           3
          16           1           1
Real atomic weights                        R   N=           3
  1.59949146E+01  1.00782504E+00  1.00782504E+00
Atom fragment info                         I   N=           3
           0           0           0
Atom residue num                           I   N=           3
           0           0           0
Nuclear spins                              I   N=           3
           0           1           1
Nuclear ZEff                               R   N=           3
 -5.60000000E+00 -1.00000000E+00 -1.00000000E+00
Nuclear QMom                               R   N=           3
  0.00000000E+00  0.00000000E+00  0.00000000E+00
Nuclear GFac                               R   N=           3
  0.00000000E+00  2.79284600E+00  2.79284600E+00
MicOpt                                     I   N=           3
          -1          -1          -1
Number of contracted shells                I                4
Number of primitive shells                 I               12
Pure/Cartesian d shells                    I                0
Pure/Cartesian f shells                    I                0
Highest angular momentum                   I                1
Largest degree of contraction              I                3
Shell types                                I   N=           4
           0          -1           0           0
Number of primitives per shell             I   N=           4
           3           3           3           3
Shell to atom map                          I   N=           4
           1           1           2           3
Primitive exponents                        R   N=          12
  1.30709321E+02  2.38088661E+01  6.44360831E+00  5.03315132E+00  1.16959612E+00
  3.80388960E-01  3.42525091E+00  6.23913730E-01  1.68855404E-01  3.42525091E+00
  6.23913730E-01  1.68855404E-01
Contraction coefficients                   R   N=          12
  1.54328967E-01  5.35328142E-01  4.44634542E-01 -9.99672292E-02  3.99512826E-01
  7.00115469E-01  1.54328967E-01  5.35328142E-01  4.44634542E-01  1.54328967E-01
  5.35328142E-01  4.44634542E-01
P(S=P) Contraction coefficients            R   N=          12
  0.00000000E+00  0.00000000E+00  0.00000000E+00  1.55916275E-01  6.07683719E-01
  3.91957393E-01  0.00000000E+00  0.00000000E+00  0.00000000E+00  0.00000000E+00
  0.00000000E+00  0.00000000E+00
Coordinates of each shell                  R   N=          12
  0.00000000E+00  0.00000000E+00  0.00000000E+00  0.00000000E+00  0.00000000E+00
  0.00000000E+00  0.00000000E+00  0.00000000E+00  1.86971260E+00  1.84115496E+00
  0.00000000E+00 -3.25535894E-01
Constraint Structure                       R   N=           9
  0.00000000E+00  0.00000000E+00  0.00000000E+00  0.00000000E+00  0.00000000E+00
  1.86971260E+00  1.84115496E+00  0.00000000E+00 -3.25535894E-01
Num ILSW                                   I              100
ILSW                                       I   N=         100
           0           0           0           0           2           0
           0           0           3           0           0          -1
           5           0           0           0           0           0
           0           0           1           0           1           0
           1           1           0           0           0           0
           0           0      100000           0          -1           0
           0           0           0           0           0           0
           0           0           0           1           0           0
           0           0           1           0           0           0
           0           0           4          40           0           0
           0           0           0           0           0           0
           0           0           0           0           0           0
           0           0           0           0           0           0
           0           0           0           0           0           0
           0           0           0           0           0           0
           0           0           0           0           0           0
           0           0           0           0
Num RLSW                                   I               40
RLSW                                       R   N=          40
  1.00000000E+00  1.00000000E+00  1.00000000E+00  1.00000000E+00  1.00000000E+00
  0.00000000E+00  0.00000000E+00  1.00000000E+00  0.00000000E+00  0.00000000E+00
  0.00000000E+00  0.00000000E+00  1.00000000E+00  0.00000000E+00  0.00000000E+00
  0.00000000E+00  0.00000000E+00  1.00000000E+00  0.00000000E+00  0.00000000E+00
  0.00000000E+00  0.00000000E+00  1.00000000E+00  0.00000000E+00  0.00000000E+00
  0.00000000E+00  0.00000000E+00  1.00000000E+00  0.00000000E+00  0.00000000E+00
  0.00000000E+00  0.00000000E+00  1.00000000E+00  0.00000000E+00  0.00000000E+00
  0.00000000E+00  0.00000000E+00  0.00000000E+00  1.00000000E+00  1.00000000E+00
MxBond                                     I                2
NBond                                      I   N=           3
           2           1           1
IBond                                      I   N=           6
           2           3           1           0           1           0
RBond                                      R   N=           6
  1.00000000E+00  1.00000000E+00  1.00000000E+00  0.00000000E+00  1.00000000E+00
  0.00000000E+00
Virial Ratio                               R      2.006002415559362E+00
SCF Energy                                 R     -7.496590121709315E+01
Total Energy                               R     -7.496590121709315E+01
RMS Force                                  R      1.405206803933341E-08
RMS Density                                R      3.872475677586297E-10
External E-field                           R   N=          35
  0.00000000E+00  0.00000000E+00  0.00000000E+00  0.00000000E+00  0.00000000E+00
  0.00000000E+00  0.00000000E+00  0.00000000E+00  0.00000000E+00  0.00000000E+00
  0.00000000E+00  0.00000000E+00  0.00000000E+00  0.00000000E+00  0.00000000E+00
  0.00000000E+00  0.00000000E+00  0.00000000E+00  0.00000000E+00  0.00000000E+00
  0.00000000E+00  0.00000000E+00  0.00000000E+00  0.00000000E+00  0.00000000E+00
  0.00000000E+00  0.00000000E+00  0.00000000E+00  0.00000000E+00  0.00000000E+00
  0.00000000E+00  0.00000000E+00  0.00000000E+00  0.00000000E+00  0.00000000E+00
IOpCl                                      I                0
IROHF                                      I                0
Alpha Orbital Energies                     R   N=           7
 -2.02515766E+01 -1.25754913E+00 -5.93855227E-01 -4.59730010E-01 -3.92617039E-01
  5.81794127E-01  6.92674460E-01
Alpha MO coefficients                      R   N=          49
  9.94216404E-01  2.58471456E-02  3.19067665E-03  1.58931934E-16  2.67602058E-03
 -5.58388324E-03 -5.58388324E-03 -2.33765663E-01  8.44449110E-01  9.41180697E-02
 -2.59899245E-16  7.89368273E-02  1.55594486E-01  1.55594486E-01  6.03858344E-11
 -2.94347390E-10 -3.93723598E-01 -3.95398452E-16  4.69445079E-01  4.49221915E-01
 -4.49221915E-01  1.04035914E-01 -5.38167291E-01  5.79149146E-01  1.08078076E-15
  4.85732402E-01  2.95102606E-01  2.95102606E-01 -1.46627999E-16  1.01260884E-15
 -6.73869093E-16  1.00000000E+00 -3.23969289E-16 -2.39868514E-16 -6.43285865E-16
 -1.25820122E-01  8.20145126E-01  5.85029848E-01 -1.35817635E-16  4.90664546E-01
 -7.69164324E-01 -7.69164324E-01 -2.04902339E-12 -5.55679810E-11  6.16776913E-01
 -4.36049693E-17 -7.35396323E-01  8.14647465E-01 -8.14647465E-01
Total SCF Density                          R   N=          28
  2.10787223E+00 -4.55388552E-01  2.00677282E+00  8.28459218E-02 -4.64237474E-01
  9.98600794E-01  3.69160540E-16  4.31208464E-16  1.67575495E-16  2.00000000E+00
  6.94828765E-02 -3.89355980E-01  2.07835641E-01 -9.41445638E-18  9.25105664E-01
 -2.24459344E-02 -5.51345444E-02  1.73311797E-02 -2.79750584E-16  7.32986214E-01
  6.26253401E-01 -2.24459344E-02 -5.51345444E-02  7.24808254E-01 -3.76098686E-16
 -1.10553854E-01 -1.80947914E-01  6.26253401E-01
QEq coupling tensors                       R   N=          18
 -1.21563920E+00  0.00000000E+00  2.72496564E+00  8.30513212E-01  0.00000000E+00
 -1.50932644E+00  1.71169745E-01  0.00000000E+00  2.32178660E-01  3.50536745E-02
  0.00000000E+00 -4.03348405E-01 -3.73912308E-01  0.00000000E+00  2.32178660E-01
  1.31430013E-01  0.00000000E+00  1.41733648E-01
Mulliken Charges                           R   N=           3
 -3.30529921E-01  1.65264960E-01  1.65264960E-01
ONIOM Charges                              I   N=          16
           0           0           0           0           0           0
           0           0           0           0           0           0
           0           0           0           0
ONIOM Multiplicities                       I   N=          16
           1           0           0           0           0           0
           0           0           0           0           0           0
           0           0           0           0
Atom Layers                                I   N=           3
           1           1           1
Atom Modifiers                             I   N=           3
           0           0           0
Force Field                                I                0
Int Atom Modified Types                    I   N=           3
           0           0           0
Link Atoms                                 I   N=           3
           0           0           0
Atom Modified MM Charges                   R   N=           3
  0.00000000E+00  0.00000000E+00  0.00000000E+00
Link Distances                             R   N=          12
  0.00000000E+00  0.00000000E+00  0.00000000E+00  0.00000000E+00  0.00000000E+00
  0.00000000E+00  0.00000000E+00  0.00000000E+00  0.00000000E+00  0.00000000E+00
  0.00000000E+00  0.00000000E+00
Cartesian Gradient                         R   N=           9
  1.50883182E-08 -9.35315031E-17  1.28788300E-08  8.08663286E-09  3.68310978E-17
 -2.51238994E-08 -2.31749491E-08  5.67004053E-17  1.22450693E-08
Cartesian Force Constants                  R   N=          45
  7.04708602E-01  2.60092449E-16 -1.71983841E-08 -8.32344574E-02  1.56069323E-16
  7.34142087E-01 -7.98565364E-02 -4.03767527E-17 -6.69756858E-02  8.49257128E-02
 -4.92472083E-17  8.68048300E-09 -1.70347788E-16  4.65794033E-17 -1.27552910E-08
  5.38491036E-02 -1.94076660E-16 -6.39568808E-01 -2.01635841E-02  1.93535245E-16
  6.54089179E-01 -6.24852065E-01 -2.19715697E-16  1.50210143E-01 -5.06917636E-03
  2.66780500E-18 -3.36855195E-02  6.29921242E-01 -2.10845241E-16  8.51867688E-09
  1.42784648E-17 -6.20265063E-18  4.07480952E-09  5.41415223E-19  2.17047892E-16
 -1.25934849E-08  2.93853537E-02  3.80073372E-17 -9.45732790E-02  8.71392699E-02
 -2.31874572E-17 -1.45203713E-02 -1.16524624E-01 -1.48198800E-17  1.09093650E-01
Dipole Moment                              R   N=           3
  5.15231086E-01 -2.07646691E-16  4.32124324E-01
Dipole Derivatives                         R   N=          27
  3.61746669E-02  1.12070580E-16  5.64649835E-02 -4.34743991E-16 -5.59682478E-01
 -1.25945085E-16  5.64649836E-02  6.73878323E-17  1.62074405E-02  1.68372029E-01
 -5.99845143E-18 -9.34892276E-02  3.02114085E-17  2.79841239E-01  2.09651409E-16
 -2.89117757E-02 -9.20300736E-17 -1.94563082E-01 -2.04546695E-01 -1.06072129E-16
  3.70242441E-02  4.04532583E-16  2.79841239E-01 -8.37063236E-17 -2.75532080E-02
  2.46422412E-17  1.78355642E-01
Polarizability                             R   N=           6
  3.78085602E+00  7.99391401E-17  4.00607635E-02 -1.44860115E+00  2.41623877E-17
  4.29311238E+00
HyperPolarizability                        R   N=          10
  8.50665845E+00 -1.88378932E-16 -5.84166594E-02  4.54483744E-17 -1.87788133E+00
 -1.02380203E-16 -4.89940535E-02  1.85124403E-02  2.33104525E-18  9.02794235E+00
