 Entering Gaussian System, Link 0=g09
 Initial command:
 /Applications/chimie/g09/l1.exe /userTMP/lauvergn/Gau-701.inp -scrdir=/userTMP/lauvergn/
 Entering Link 1 = /Applications/chimie/g09/l1.exe PID=       702.
  
 Copyright (c) 1988,1990,1992,1993,1995,1998,2003,2009,2010,
            Gaussian, Inc.  All Rights Reserved.
  
 This is part of the Gaussian(R) 09 program.  It is based on
 the Gaussian(R) 03 system (copyright 2003, Gaussian, Inc.),
 the Gaussian(R) 98 system (copyright 1998, Gaussian, Inc.),
 the Gaussian(R) 94 system (copyright 1995, Gaussian, Inc.),
 the Gaussian 92(TM) system (copyright 1992, Gaussian, Inc.),
 the Gaussian 90(TM) system (copyright 1990, Gaussian, Inc.),
 the Gaussian 88(TM) system (copyright 1988, Gaussian, Inc.),
 the Gaussian 86(TM) system (copyright 1986, Carnegie Mellon
 University), and the Gaussian 82(TM) system (copyright 1983,
 Carnegie Mellon University). Gaussian is a federally registered
 trademark of Gaussian, Inc.
  
 This software contains proprietary and confidential information,
 including trade secrets, belonging to Gaussian, Inc.
  
 This software is provided under written license and may be
 used, copied, transmitted, or stored only in accord with that
 written license.
  
 The following legend is applicable only to US Government
 contracts under FAR:
  
                    RESTRICTED RIGHTS LEGEND
  
 Use, reproduction and disclosure by the US Government is
 subject to restrictions as set forth in subparagraphs (a)
 and (c) of the Commercial Computer Software - Restricted
 Rights clause in FAR 52.227-19.
  
 Gaussian, Inc.
 340 Quinnipiac St., Bldg. 40, Wallingford CT 06492
  
  
 ---------------------------------------------------------------
 Warning -- This program may not be used in any manner that
 competes with the business of Gaussian, Inc. or will provide
 assistance to any competitor of Gaussian, Inc.  The licensee
 of this program is prohibited from giving any competitor of
 Gaussian, Inc. access to this program.  By using this program,
 the user acknowledges that Gaussian, Inc. is engaged in the
 business of creating and licensing software in the field of
 computational chemistry and represents and warrants to the
 licensee that it is not a competitor of Gaussian, Inc. and that
 it will not use this program in any manner prohibited above.
 ---------------------------------------------------------------
  

 Cite this work as:
 Gaussian 09, Revision B.01,
 M. J. Frisch, G. W. Trucks, H. B. Schlegel, G. E. Scuseria, 
 M. A. Robb, J. R. Cheeseman, G. Scalmani, V. Barone, B. Mennucci, 
 G. A. Petersson, H. Nakatsuji, M. Caricato, X. Li, H. P. Hratchian, 
 A. F. Izmaylov, J. Bloino, G. Zheng, J. L. Sonnenberg, M. Hada, 
 M. Ehara, K. Toyota, R. Fukuda, J. Hasegawa, M. Ishida, T. Nakajima, 
 Y. Honda, O. Kitao, H. Nakai, T. Vreven, J. A. Montgomery, Jr., 
 J. E. Peralta, F. Ogliaro, M. Bearpark, J. J. Heyd, E. Brothers, 
 K. N. Kudin, V. N. Staroverov, T. Keith, R. Kobayashi, J. Normand, 
 K. Raghavachari, A. Rendell, J. C. Burant, S. S. Iyengar, J. Tomasi, 
 M. Cossi, N. Rega, J. M. Millam, M. Klene, J. E. Knox, J. B. Cross, 
 V. Bakken, C. Adamo, J. Jaramillo, R. Gomperts, R. E. Stratmann, 
 O. Yazyev, A. J. Austin, R. Cammi, C. Pomelli, J. W. Ochterski, 
 R. L. Martin, K. Morokuma, V. G. Zakrzewski, G. A. Voth, 
 P. Salvador, J. J. Dannenberg, S. Dapprich, A. D. Daniels, 
 O. Farkas, J. B. Foresman, J. V. Ortiz, J. Cioslowski, 
 and D. J. Fox, Gaussian, Inc., Wallingford CT, 2010.
 
 ******************************************
 Gaussian 09:  EM64M-G09RevB.01 12-Aug-2010
                26-Oct-2013 
 ******************************************
 %chk=h2o_freq
 ----------------------------------
 #hf sto-3g opt=z-matrix freq nosym
 ----------------------------------
 1/10=7,18=40,38=1/1,3;
 2/12=2,15=1,17=6,18=5,29=3,40=1/2;
 3/6=3,11=9,16=1,25=1,30=1,71=1/1,2,3;
 4//1;
 5/5=2,38=5/2;
 6/7=2,8=2,9=2,10=2,28=1/1;
 7/29=1,30=1/1,2,3,16;
 1/10=7,18=40/3(2);
 2/15=1,29=3/2;
 99//99;
 2/15=1,29=3/2;
 3/6=3,11=9,16=1,25=1,30=1,71=1/1,2,3;
 4/5=5,16=3/1;
 5/5=2,38=5/2;
 7/30=1/1,2,3,16;
 1/18=40/3(-5);
 2/15=1,29=3/2;
 6/7=2,8=2,9=2,10=2,19=2,28=1/1;
 99/9=1/99;


 Symbolic Z-matrix:
 Charge =  0 Multiplicity = 1
 O
 H1                   O    R
 H2                   O    R        H1   A
       Variables:
  R                     1.                       
  A                   100.                       
 

 GradGradGradGradGradGradGradGradGradGradGradGradGradGradGradGradGradGrad
 Berny optimization.
 Initialization pass.
                       ----------------------------
                       !    Initial Parameters    !
                       ! (Angstroms and Degrees)  !
 ----------------------                            ----------------------
 !      Name          Value   Derivative information (Atomic Units)     !
 ------------------------------------------------------------------------
 !        R          1.0      estimate D2E/DX2                          !
 !        A        100.0      estimate D2E/DX2                          !
 ------------------------------------------------------------------------
 Trust Radius=3.00D-01 FncErr=1.00D-07 GrdErr=1.00D-07
 Number of steps in this run=     20 maximum allowed number of steps=    100.
 GradGradGradGradGradGradGradGradGradGradGradGradGradGradGradGradGradGrad

 ---------------------------------------------------------------------------------------------------
                            Z-MATRIX (ANGSTROMS AND DEGREES)
   CD    Cent   Atom    N1       Length/X        N2       Alpha/Y        N3        Beta/Z          J
 ---------------------------------------------------------------------------------------------------
      1      1  O 
      2      2  H        1   1.000000(     1)
      3      3  H        1   1.000000(     2)      2  100.000(     3)
 ---------------------------------------------------------------------------------------------------
                         Z-Matrix orientation:                         
 ---------------------------------------------------------------------
 Center     Atomic      Atomic             Coordinates (Angstroms)
 Number     Number       Type             X           Y           Z
 ---------------------------------------------------------------------
      1          8           0        0.000000    0.000000    0.000000
      2          1           0        0.000000    0.000000    1.000000
      3          1           0        0.984808    0.000000   -0.173648
 ---------------------------------------------------------------------
                    Distance matrix (angstroms):
                    1          2          3
     1  O    0.000000
     2  H    1.000000   0.000000
     3  H    1.000000   1.532089   0.000000
 Symmetry turned off by external request.
 Stoichiometry    H2O
 Framework group  C2V[C2(O),SGV(H2)]
 Deg. of freedom     2
 Full point group                 C2V     NOp   4
 Rotational constants (GHZ):    683.3016464    427.2618574    262.8834187
 Standard basis: STO-3G (5D, 7F)
 Integral buffers will be    131072 words long.
 Raffenetti 1 integral format.
 Two-electron integral symmetry is turned off.
     7 basis functions,    21 primitive gaussians,     7 cartesian basis functions
     5 alpha electrons        5 beta electrons
       nuclear repulsion energy         8.8122312302 Hartrees.
 NAtoms=    3 NActive=    3 NUniq=    3 SFac= 1.00D+00 NAtFMM=   50 NAOKFM=F Big=F
 One-electron integrals computed using PRISM.
 NBasis=     7 RedAO= T  NBF=     7
 NBsUse=     7 1.00D-06 NBFU=     7
 Harris functional with IExCor=  205 diagonalized for initial guess.
 ExpMin= 1.69D-01 ExpMax= 1.31D+02 ExpMxC= 1.31D+02 IAcc=1 IRadAn=         1 AccDes= 0.00D+00
 HarFok:  IExCor=  205 AccDes= 0.00D+00 IRadAn=         1 IDoV= 1
 ScaDFX=  1.000000  1.000000  1.000000  1.000000
 FoFCou: FMM=F IPFlag=           0 FMFlag=      100000 FMFlg1=           0
         NFxFlg=           0 DoJE=T BraDBF=F KetDBF=T FulRan=T
         Omega=  0.000000  0.000000  1.000000  0.000000  0.000000 ICntrl=     500 IOpCl=  0
         NMat0=    1 NMatS0=    1 NMatT0=    0 NMatD0=    1 NMtDS0=    0 NMtDT0=    0
         I1Cent=           4 NGrid=           0.
 Symmetry not used in FoFCou.
 Requested convergence on RMS density matrix=1.00D-08 within 128 cycles.
 Requested convergence on MAX density matrix=1.00D-06.
 Requested convergence on             energy=1.00D-06.
 No special actions if energy rises.
 Keep R1 ints in memory in canonical form, NReq=820147.
 SCF Done:  E(RHF) =  -74.9656570251     A.U. after    7 cycles
             Convg  =    0.3858D-09             -V/T =  2.0063

 **********************************************************************

            Population analysis using the SCF density.

 **********************************************************************

 Alpha  occ. eigenvalues --  -20.25303  -1.25259  -0.58858  -0.45848  -0.39216
 Alpha virt. eigenvalues --    0.57187   0.68078
          Condensed to atoms (all electrons):
              1          2          3
     1  O    7.818278   0.251575   0.251575
     2  H    0.251575   0.631290  -0.043579
     3  H    0.251575  -0.043579   0.631290
 Mulliken atomic charges:
              1
     1  O   -0.321427
     2  H    0.160714
     3  H    0.160714
 Sum of Mulliken atomic charges =   0.00000
 Mulliken charges with hydrogens summed into heavy atoms:
              1
     1  O    0.000000
 Sum of Mulliken charges with hydrogens summed into heavy atoms =   0.00000
 Electronic spatial extent (au):  <R**2>=             18.6769
 Charge=              0.0000 electrons
 Dipole moment (field-independent basis, Debye):
    X=              1.2980    Y=              0.0000    Z=              1.0891  Tot=              1.6944
 Quadrupole moment (field-independent basis, Debye-Ang):
   XX=             -4.7261   YY=             -6.1345   ZZ=             -4.6540
   XY=              0.0000   XZ=             -0.2044   YZ=              0.0000
 Traceless Quadrupole moment (field-independent basis, Debye-Ang):
   XX=              0.4455   YY=             -0.9630   ZZ=              0.5175
   XY=              0.0000   XZ=             -0.2044   YZ=              0.0000
 Octapole moment (field-independent basis, Debye-Ang**2):
  XXX=             -0.8519  YYY=              0.0000  ZZZ=             -0.5251  XYY=             -0.6236
  XXY=              0.0000  XXZ=             -0.6657  XZZ=             -0.5672  YZZ=              0.0000
  YYZ=             -0.5233  XYZ=              0.0000
 Hexadecapole moment (field-independent basis, Debye-Ang**3):
 XXXX=             -5.6008 YYYY=             -3.2753 ZZZZ=             -5.7944 XXXY=              0.0000
 XXXZ=              0.1726 YYYX=              0.0000 YYYZ=              0.0000 ZZZX=              0.3764
 ZZZY=              0.0000 XXYY=             -1.6847 XXZZ=             -2.2724 YYZZ=             -1.7280
 XXYZ=              0.0000 YYXZ=              0.1229 ZZXY=              0.0000
 N-N= 8.812231230161D+00 E-N=-1.961628352948D+02  KE= 7.449674561927D+01
 Calling FoFJK, ICntrl=      2127 FMM=F ISym2X=0 I1Cent= 0 IOpClX= 0 NMat=1 NMatS=1 NMatT=0.
 -------------------------------------------------------------------
 Center     Atomic                   Forces (Hartrees/Bohr)
 Number     Number              X              Y              Z
 -------------------------------------------------------------------
      1        8           0.011085507    0.000000000    0.009301845
      2        1           0.000705734    0.000000000   -0.012097580
      3        1          -0.011791241    0.000000000    0.002795736
 -------------------------------------------------------------------
 Cartesian Forces:  Max     0.012097580 RMS     0.007476718
 -----------------------------------------------------------------------------------------------
                       Internal Coordinate Forces (Hartree/Bohr or radian)
  Cent   Atom   N1       Length/X         N2         Alpha/Y        N3         Beta/Z          J
 -----------------------------------------------------------------------------------------------
      1  O 
      2  H        1  -0.012098(     1)
      3  H        1  -0.012098(     2)      2  -0.001334(     3)
 -----------------------------------------------------------------------------------------------
 Internal  Forces:  Max     0.012097580 RMS     0.009907598

 GradGradGradGradGradGradGradGradGradGradGradGradGradGradGradGradGradGrad
 Berny optimization.
 Search for a local minimum.
 Step number   1 out of a maximum of   20
 All quantities printed in internal units (Hartrees-Bohrs-Radians)
 Second derivative matrix not updated -- first step.
 The second derivative matrix:
                           R         A
           R            0.95377
           A            0.00000   0.16000
 ITU=  0
     Eigenvalues ---    0.16000   0.95377
 RFO step:  Lambda=-6.24454265D-04 EMin= 1.60000000D-01
 Linear search not attempted -- first point.
 Variable       Old X    -DE/DX   Delta X   Delta X   Delta X     New X
                                 (Linear)    (Quad)   (Total)
    R         1.88973  -0.02420   0.00000  -0.02535  -0.02535   1.86437
    A         1.74533  -0.00133   0.00000  -0.00830  -0.00830   1.73703
         Item               Value     Threshold  Converged?
 Maximum Force            0.024195     0.000450     NO 
 RMS     Force            0.017135     0.000300     NO 
 Maximum Displacement     0.025351     0.001800     NO 
 RMS     Displacement     0.018863     0.001200     NO 
 Predicted change in Energy=-3.124495D-04
 GradGradGradGradGradGradGradGradGradGradGradGradGradGradGradGradGradGrad

 ---------------------------------------------------------------------------------------------------
                            Z-MATRIX (ANGSTROMS AND DEGREES)
   CD    Cent   Atom    N1       Length/X        N2       Alpha/Y        N3        Beta/Z          J
 ---------------------------------------------------------------------------------------------------
      1      1  O 
      2      2  H        1   0.986585(     1)
      3      3  H        1   0.986585(     2)      2   99.524(     3)
 ---------------------------------------------------------------------------------------------------
                         Z-Matrix orientation:                         
 ---------------------------------------------------------------------
 Center     Atomic      Atomic             Coordinates (Angstroms)
 Number     Number       Type             X           Y           Z
 ---------------------------------------------------------------------
      1          8           0        0.000000    0.000000    0.000000
      2          1           0        0.000000    0.000000    0.986585
      3          1           0        0.972985    0.000000   -0.163246
 ---------------------------------------------------------------------
                    Distance matrix (angstroms):
                    1          2          3
     1  O    0.000000
     2  H    0.986585   0.000000
     3  H    0.986585   1.506257   0.000000
 Symmetry turned off by external request.
 Stoichiometry    H2O
 Framework group  C2V[C2(O),SGV(H2)]
 Deg. of freedom     2
 Full point group                 C2V     NOp   4
 Rotational constants (GHZ):    695.1275697    442.0424108    270.2110256
 Standard basis: STO-3G (5D, 7F)
 Integral buffers will be    131072 words long.
 Raffenetti 1 integral format.
 Two-electron integral symmetry is turned off.
     7 basis functions,    21 primitive gaussians,     7 cartesian basis functions
     5 alpha electrons        5 beta electrons
       nuclear repulsion energy         8.9332851058 Hartrees.
 NAtoms=    3 NActive=    3 NUniq=    3 SFac= 1.00D+00 NAtFMM=   50 NAOKFM=F Big=F
 One-electron integrals computed using PRISM.
 NBasis=     7 RedAO= T  NBF=     7
 NBsUse=     7 1.00D-06 NBFU=     7
 Initial guess read from the read-write file.
 B after Tr=     0.000000    0.000000    0.000000
         Rot=    1.000000    0.000000    0.000000    0.000000 Ang=   0.00 deg.
 Harris functional with IExCor=  205 diagonalized for initial guess.
 ExpMin= 1.69D-01 ExpMax= 1.31D+02 ExpMxC= 1.31D+02 IAcc=1 IRadAn=         1 AccDes= 0.00D+00
 HarFok:  IExCor=  205 AccDes= 0.00D+00 IRadAn=         1 IDoV= 1
 ScaDFX=  1.000000  1.000000  1.000000  1.000000
 FoFCou: FMM=F IPFlag=           0 FMFlag=      100000 FMFlg1=           0
         NFxFlg=           0 DoJE=T BraDBF=F KetDBF=T FulRan=T
         Omega=  0.000000  0.000000  1.000000  0.000000  0.000000 ICntrl=     500 IOpCl=  0
         NMat0=    1 NMatS0=    1 NMatT0=    0 NMatD0=    1 NMtDS0=    0 NMtDT0=    0
         I1Cent=           4 NGrid=           0.
 Symmetry not used in FoFCou.
 Requested convergence on RMS density matrix=1.00D-08 within 128 cycles.
 Requested convergence on MAX density matrix=1.00D-06.
 Requested convergence on             energy=1.00D-06.
 No special actions if energy rises.
 Keep R1 ints in memory in canonical form, NReq=820147.
 SCF Done:  E(RHF) =  -74.9658683341     A.U. after    7 cycles
             Convg  =    0.3391D-08             -V/T =  2.0059
 Calling FoFJK, ICntrl=      2127 FMM=F ISym2X=0 I1Cent= 0 IOpClX= 0 NMat=1 NMatS=1 NMatT=0.
 -------------------------------------------------------------------
 Center     Atomic                   Forces (Hartrees/Bohr)
 Number     Number              X              Y              Z
 -------------------------------------------------------------------
      1        8          -0.001749980    0.000000000   -0.001480830
      2        1          -0.001621949    0.000000000    0.003691186
      3        1           0.003371929    0.000000000   -0.002210356
 -------------------------------------------------------------------
 Cartesian Forces:  Max     0.003691186 RMS     0.002048480
 -----------------------------------------------------------------------------------------------
                       Internal Coordinate Forces (Hartree/Bohr or radian)
  Cent   Atom   N1       Length/X         N2         Alpha/Y        N3         Beta/Z          J
 -----------------------------------------------------------------------------------------------
      1  O 
      2  H        1   0.003691(     1)
      3  H        1   0.003691(     2)      2   0.003024(     3)
 -----------------------------------------------------------------------------------------------
 Internal  Forces:  Max     0.003691187 RMS     0.003482997

 GradGradGradGradGradGradGradGradGradGradGradGradGradGradGradGradGradGrad
 Berny optimization.
 Search for a local minimum.
 Step number   2 out of a maximum of   20
 All quantities printed in internal units (Hartrees-Bohrs-Radians)
 Update second derivatives using D2CorN and points    1    2
 DE= -2.11D-04 DEPred=-3.12D-04 R= 6.76D-01
 SS=  1.41D+00  RLast= 2.67D-02 DXNew= 5.0454D-01 8.0029D-02
 Trust test= 6.76D-01 RLast= 2.67D-02 DXMaxT set to 3.00D-01
 The second derivative matrix:
                           R         A
           R            1.21732
           A            0.09711   0.19534
 ITU=  1  0
     Eigenvalues ---    0.18620   1.22647
 RFO step:  Lambda=-2.01670185D-05 EMin= 1.86195333D-01
 Quartic linear search produced a step of -0.24672.
 Variable       Old X    -DE/DX   Delta X   Delta X   Delta X     New X
                                 (Linear)    (Quad)   (Total)
    R         1.86437   0.00738   0.00625  -0.00133   0.00493   1.86930
    A         1.73703   0.00302   0.00205   0.01029   0.01234   1.74936
         Item               Value     Threshold  Converged?
 Maximum Force            0.007382     0.000450     NO 
 RMS     Force            0.005641     0.000300     NO 
 Maximum Displacement     0.012335     0.001800     NO 
 RMS     Displacement     0.009393     0.001200     NO 
 Predicted change in Energy=-3.813489D-05
 GradGradGradGradGradGradGradGradGradGradGradGradGradGradGradGradGradGrad

 ---------------------------------------------------------------------------------------------------
                            Z-MATRIX (ANGSTROMS AND DEGREES)
   CD    Cent   Atom    N1       Length/X        N2       Alpha/Y        N3        Beta/Z          J
 ---------------------------------------------------------------------------------------------------
      1      1  O 
      2      2  H        1   0.989192(     1)
      3      3  H        1   0.989192(     2)      2  100.231(     3)
 ---------------------------------------------------------------------------------------------------
                         Z-Matrix orientation:                         
 ---------------------------------------------------------------------
 Center     Atomic      Atomic             Coordinates (Angstroms)
 Number     Number       Type             X           Y           Z
 ---------------------------------------------------------------------
      1          8           0        0.000000    0.000000    0.000000
      2          1           0        0.000000    0.000000    0.989192
      3          1           0        0.973464    0.000000   -0.175698
 ---------------------------------------------------------------------
                    Distance matrix (angstroms):
                    1          2          3
     1  O    0.000000
     2  H    0.989192   0.000000
     3  H    0.989192   1.518092   0.000000
 Symmetry turned off by external request.
 Stoichiometry    H2O
 Framework group  C2V[C2(O),SGV(H2)]
 Deg. of freedom     2
 Full point group                 C2V     NOp   4
 Rotational constants (GHZ):    701.6851629    435.1772150    268.5966226
 Standard basis: STO-3G (5D, 7F)
 Integral buffers will be    131072 words long.
 Raffenetti 1 integral format.
 Two-electron integral symmetry is turned off.
     7 basis functions,    21 primitive gaussians,     7 cartesian basis functions
     5 alpha electrons        5 beta electrons
       nuclear repulsion energy         8.9079221718 Hartrees.
 NAtoms=    3 NActive=    3 NUniq=    3 SFac= 1.00D+00 NAtFMM=   50 NAOKFM=F Big=F
 One-electron integrals computed using PRISM.
 NBasis=     7 RedAO= T  NBF=     7
 NBsUse=     7 1.00D-06 NBFU=     7
 Initial guess read from the read-write file.
 B after Tr=     0.000000    0.000000    0.000000
         Rot=    1.000000    0.000000    0.000000    0.000000 Ang=   0.00 deg.
 Requested convergence on RMS density matrix=1.00D-08 within 128 cycles.
 Requested convergence on MAX density matrix=1.00D-06.
 Requested convergence on             energy=1.00D-06.
 No special actions if energy rises.
 Keep R1 ints in memory in canonical form, NReq=820147.
 SCF Done:  E(RHF) =  -74.9658993395     A.U. after    7 cycles
             Convg  =    0.5128D-08             -V/T =  2.0060
 Calling FoFJK, ICntrl=      2127 FMM=F ISym2X=0 I1Cent= 0 IOpClX= 0 NMat=1 NMatS=1 NMatT=0.
 -------------------------------------------------------------------
 Center     Atomic                   Forces (Hartrees/Bohr)
 Number     Number              X              Y              Z
 -------------------------------------------------------------------
      1        8          -0.000765629    0.000000000   -0.000639813
      2        1           0.000548554    0.000000000    0.000121576
      3        1           0.000217076    0.000000000    0.000518237
 -------------------------------------------------------------------
 Cartesian Forces:  Max     0.000765629 RMS     0.000425171
 -----------------------------------------------------------------------------------------------
                       Internal Coordinate Forces (Hartree/Bohr or radian)
  Cent   Atom   N1       Length/X         N2         Alpha/Y        N3         Beta/Z          J
 -----------------------------------------------------------------------------------------------
      1  O 
      2  H        1   0.000122(     1)
      3  H        1   0.000122(     2)      2  -0.001025(     3)
 -----------------------------------------------------------------------------------------------
 Internal  Forces:  Max     0.001025413 RMS     0.000600287

 GradGradGradGradGradGradGradGradGradGradGradGradGradGradGradGradGradGrad
 Berny optimization.
 Search for a local minimum.
 Step number   3 out of a maximum of   20
 All quantities printed in internal units (Hartrees-Bohrs-Radians)
 Update second derivatives using D2CorN and points    1    2    3
 DE= -3.10D-05 DEPred=-3.81D-05 R= 8.13D-01
 SS=  1.41D+00  RLast= 1.33D-02 DXNew= 5.0454D-01 3.9850D-02
 Trust test= 8.13D-01 RLast= 1.33D-02 DXMaxT set to 3.00D-01
 The second derivative matrix:
                           R         A
           R            1.22156
           A            0.09977   0.28481
 ITU=  1  1  0
     Eigenvalues ---    0.27430   1.23207
 RFO step:  Lambda=-2.41467499D-06 EMin= 2.74300594D-01
 Quartic linear search produced a step of -0.13541.
 Variable       Old X    -DE/DX   Delta X   Delta X   Delta X     New X
                                 (Linear)    (Quad)   (Total)
    R         1.86930   0.00024  -0.00067   0.00116   0.00049   1.86980
    A         1.74936  -0.00103  -0.00167  -0.00210  -0.00377   1.74559
         Item               Value     Threshold  Converged?
 Maximum Force            0.001025     0.000450     NO 
 RMS     Force            0.000745     0.000300     NO 
 Maximum Displacement     0.003771     0.001800     NO 
 RMS     Displacement     0.002689     0.001200     NO 
 Predicted change in Energy=-1.998684D-06
 GradGradGradGradGradGradGradGradGradGradGradGradGradGradGradGradGradGrad

 ---------------------------------------------------------------------------------------------------
                            Z-MATRIX (ANGSTROMS AND DEGREES)
   CD    Cent   Atom    N1       Length/X        N2       Alpha/Y        N3        Beta/Z          J
 ---------------------------------------------------------------------------------------------------
      1      1  O 
      2      2  H        1   0.989453(     1)
      3      3  H        1   0.989453(     2)      2  100.015(     3)
 ---------------------------------------------------------------------------------------------------
                         Z-Matrix orientation:                         
 ---------------------------------------------------------------------
 Center     Atomic      Atomic             Coordinates (Angstroms)
 Number     Number       Type             X           Y           Z
 ---------------------------------------------------------------------
      1          8           0        0.000000    0.000000    0.000000
      2          1           0        0.000000    0.000000    0.989453
      3          1           0        0.974376    0.000000   -0.172072
 ---------------------------------------------------------------------
                    Distance matrix (angstroms):
                    1          2          3
     1  O    0.000000
     2  H    0.989453   0.000000
     3  H    0.989453   1.516097   0.000000
 Symmetry turned off by external request.
 Stoichiometry    H2O
 Framework group  C2V[C2(O),SGV(H2)]
 Deg. of freedom     2
 Full point group                 C2V     NOp   4
 Rotational constants (GHZ):    698.1638569    436.3231728    268.5134878
 Standard basis: STO-3G (5D, 7F)
 Integral buffers will be    131072 words long.
 Raffenetti 1 integral format.
 Two-electron integral symmetry is turned off.
     7 basis functions,    21 primitive gaussians,     7 cartesian basis functions
     5 alpha electrons        5 beta electrons
       nuclear repulsion energy         8.9061243478 Hartrees.
 NAtoms=    3 NActive=    3 NUniq=    3 SFac= 1.00D+00 NAtFMM=   50 NAOKFM=F Big=F
 One-electron integrals computed using PRISM.
 NBasis=     7 RedAO= T  NBF=     7
 NBsUse=     7 1.00D-06 NBFU=     7
 Initial guess read from the read-write file.
 B after Tr=     0.000000    0.000000    0.000000
         Rot=    1.000000    0.000000    0.000000    0.000000 Ang=   0.00 deg.
 Requested convergence on RMS density matrix=1.00D-08 within 128 cycles.
 Requested convergence on MAX density matrix=1.00D-06.
 Requested convergence on             energy=1.00D-06.
 No special actions if energy rises.
 Keep R1 ints in memory in canonical form, NReq=820147.
 SCF Done:  E(RHF) =  -74.9659012077     A.U. after    7 cycles
             Convg  =    0.1581D-08             -V/T =  2.0060
 Calling FoFJK, ICntrl=      2127 FMM=F ISym2X=0 I1Cent= 0 IOpClX= 0 NMat=1 NMatS=1 NMatT=0.
 -------------------------------------------------------------------
 Center     Atomic                   Forces (Hartrees/Bohr)
 Number     Number              X              Y              Z
 -------------------------------------------------------------------
      1        8           0.000077972    0.000000000    0.000065409
      2        1          -0.000029608    0.000000000   -0.000043884
      3        1          -0.000048364    0.000000000   -0.000021525
 -------------------------------------------------------------------
 Cartesian Forces:  Max     0.000077972 RMS     0.000042115
 -----------------------------------------------------------------------------------------------
                       Internal Coordinate Forces (Hartree/Bohr or radian)
  Cent   Atom   N1       Length/X         N2         Alpha/Y        N3         Beta/Z          J
 -----------------------------------------------------------------------------------------------
      1  O 
      2  H        1  -0.000044(     1)
      3  H        1  -0.000044(     2)      2   0.000055(     3)
 -----------------------------------------------------------------------------------------------
 Internal  Forces:  Max     0.000055361 RMS     0.000048015

 GradGradGradGradGradGradGradGradGradGradGradGradGradGradGradGradGradGrad
 Berny optimization.
 Search for a local minimum.
 Step number   4 out of a maximum of   20
 All quantities printed in internal units (Hartrees-Bohrs-Radians)
 Update second derivatives using D2CorN and points    2    3    4
 DE= -1.87D-06 DEPred=-2.00D-06 R= 9.35D-01
 SS=  1.41D+00  RLast= 3.80D-03 DXNew= 5.0454D-01 1.1409D-02
 Trust test= 9.35D-01 RLast= 3.80D-03 DXMaxT set to 3.00D-01
 The second derivative matrix:
                           R         A
           R            1.22474
           A            0.08476   0.29932
 ITU=  1  1  1
     Eigenvalues ---    0.29162   1.23244
 RFO step:  Lambda= 0.00000000D+00 EMin= 2.91621741D-01
 Quartic linear search produced a step of -0.05938.
 Variable       Old X    -DE/DX   Delta X   Delta X   Delta X     New X
                                 (Linear)    (Quad)   (Total)
    R         1.86980  -0.00009  -0.00003  -0.00005  -0.00008   1.86971
    A         1.74559   0.00006   0.00022  -0.00001   0.00021   1.74580
         Item               Value     Threshold  Converged?
 Maximum Force            0.000088     0.000450     YES
 RMS     Force            0.000073     0.000300     YES
 Maximum Displacement     0.000210     0.001800     YES
 RMS     Displacement     0.000160     0.001200     YES
 Predicted change in Energy=-9.572436D-09
 Optimization completed.
    -- Stationary point found.
                       ----------------------------
                       !   Optimized Parameters   !
                       ! (Angstroms and Degrees)  !
 ----------------------                            ----------------------
 !      Name          Value   Derivative information (Atomic Units)     !
 ------------------------------------------------------------------------
 !        R          0.9895   -DE/DX =   -0.0001                        !
 !        A        100.015    -DE/DX =    0.0001                        !
 ------------------------------------------------------------------------
 GradGradGradGradGradGradGradGradGradGradGradGradGradGradGradGradGradGrad

 ---------------------------------------------------------------------------------------------------
                            Z-MATRIX (ANGSTROMS AND DEGREES)
   CD    Cent   Atom    N1       Length/X        N2       Alpha/Y        N3        Beta/Z          J
 ---------------------------------------------------------------------------------------------------
      1      1  O 
      2      2  H        1   0.989453(     1)
      3      3  H        1   0.989453(     2)      2  100.015(     3)
 ---------------------------------------------------------------------------------------------------
                         Z-Matrix orientation:                         
 ---------------------------------------------------------------------
 Center     Atomic      Atomic             Coordinates (Angstroms)
 Number     Number       Type             X           Y           Z
 ---------------------------------------------------------------------
      1          8           0        0.000000    0.000000    0.000000
      2          1           0        0.000000    0.000000    0.989453
      3          1           0        0.974376    0.000000   -0.172072
 ---------------------------------------------------------------------
                    Distance matrix (angstroms):
                    1          2          3
     1  O    0.000000
     2  H    0.989453   0.000000
     3  H    0.989453   1.516097   0.000000
 Symmetry turned off by external request.
 Stoichiometry    H2O
 Framework group  C2V[C2(O),SGV(H2)]
 Deg. of freedom     2
 Full point group                 C2V     NOp   4
 Rotational constants (GHZ):    698.1638569    436.3231728    268.5134878

 **********************************************************************

            Population analysis using the SCF density.

 **********************************************************************

 Alpha  occ. eigenvalues --  -20.25160  -1.25754  -0.59381  -0.45975  -0.39262
 Alpha virt. eigenvalues --    0.58177   0.69259
          Condensed to atoms (all electrons):
              1          2          3
     1  O    7.822748   0.253864   0.253864
     2  H    0.253864   0.626298  -0.045400
     3  H    0.253864  -0.045400   0.626298
 Mulliken atomic charges:
              1
     1  O   -0.330476
     2  H    0.165238
     3  H    0.165238
 Sum of Mulliken atomic charges =   0.00000
 Mulliken charges with hydrogens summed into heavy atoms:
              1
     1  O    0.000000
 Sum of Mulliken charges with hydrogens summed into heavy atoms =   0.00000
 Electronic spatial extent (au):  <R**2>=             18.5235
 Charge=              0.0000 electrons
 Dipole moment (field-independent basis, Debye):
    X=              1.3095    Y=              0.0000    Z=              1.0985  Tot=              1.7092
 Quadrupole moment (field-independent basis, Debye-Ang):
   XX=             -4.7280   YY=             -6.1257   ZZ=             -4.6563
   XY=              0.0000   XZ=             -0.2030   YZ=              0.0000
 Traceless Quadrupole moment (field-independent basis, Debye-Ang):
   XX=              0.4420   YY=             -0.9557   ZZ=              0.5137
   XY=              0.0000   XZ=             -0.2030   YZ=              0.0000
 Octapole moment (field-independent basis, Debye-Ang**2):
  XXX=             -0.8365  YYY=              0.0000  ZZZ=             -0.5162  XYY=             -0.6116
  XXY=              0.0000  XXZ=             -0.6513  XZZ=             -0.5553  YZZ=              0.0000
  YYZ=             -0.5131  XYZ=              0.0000
 Hexadecapole moment (field-independent basis, Debye-Ang**3):
 XXXX=             -5.5290 YYYY=             -3.2654 ZZZZ=             -5.7200 XXXY=              0.0000
 XXXZ=              0.1716 YYYX=              0.0000 YYYZ=              0.0000 ZZZX=              0.3693
 ZZZY=              0.0000 XXYY=             -1.6649 XXZZ=             -2.2365 YYZZ=             -1.7074
 XXYZ=              0.0000 YYXZ=              0.1204 ZZXY=              0.0000
 N-N= 8.906124347769D+00 E-N=-1.963519260616D+02  KE= 7.451852474375D+01
 1\1\GINC-KRUCK\FOpt\RHF\STO-3G\H2O1\LAUVERGN\26-Oct-2013\1\\#hf sto-3g
  opt=z-matrix freq nosym\\\0,1\O\H,1,R\H,1,R,2,A\\R=0.98945321\A=100.0
 1498903\\Version=EM64M-G09RevB.01\HF=-74.9659012\RMSD=1.581e-09\RMSF=4
 .211e-05\Dipole=0.515188,0.,0.4321793\Quadrupole=0.3286209,-0.7105584,
 0.3819375,0.,-0.150956,0.\PG=C02V [C2(O1),SGV(H2)]\\@


 MAN IS A SINGULAR CREATURE.  HE HAS A SET OF GIFTS
 WHICH MAKE HIM UNIQUE AMONG THE ANIMALS: SO THAT, 
 UNLIKE THEM, HE IS NOT A FIGURE IN THE LANDSCAPE --
 HE IS A SHAPER OF THE LANDSCAPE.

                       -- JACOB BRONOWSKI
 Job cpu time:  0 days  0 hours  0 minutes  2.6 seconds.
 File lengths (MBytes):  RWF=      5 Int=      0 D2E=      0 Chk=      1 Scr=      1
 Normal termination of Gaussian 09 at Sat Oct 26 09:45:09 2013.
 Link1:  Proceeding to internal job step number  2.
 ---------------------------------------------------------------
 #N Geom=AllCheck Guess=TCheck SCRF=Check GenChk RHF/STO-3G Freq
 ---------------------------------------------------------------
 1/10=4,29=7,30=1,38=1,40=1/1,3;
 2/12=2,15=1,40=1/2;
 3/6=3,11=1,14=-4,16=1,25=1,30=1,70=2,71=2,116=1/1,2,3;
 4/5=101/1;
 5/5=2,98=1/2;
 8/6=4,10=90,11=11/1;
 10/13=10,15=4,31=1/2;
 11/6=3,8=1,9=11,15=111,16=1,31=1/1,2,10;
 10/6=1,31=1/2;
 6/7=2,8=2,9=2,10=2,18=1,28=1/1;
 7/8=1,10=1,25=1,30=1/1,2,3,16;
 1/10=4,30=1/3;
 99//99;

 

 Z-Matrix taken from the checkpoint file:
 h2o_freq.chk
 Charge =  0 Multiplicity = 1
 O
 H,1,R
 H,1,R,2,A
      Variables:
 R=0.98945321
 A=100.01498903
 Recover connectivity data from disk.

 GradGradGradGradGradGradGradGradGradGradGradGradGradGradGradGradGradGrad
 Berny optimization.
 Initialization pass.
                       ----------------------------
                       !    Initial Parameters    !
                       ! (Angstroms and Degrees)  !
 ----------------------                            ----------------------
 !      Name          Value   Derivative information (Atomic Units)     !
 ------------------------------------------------------------------------
 !        R          0.9895   calculate D2E/DX2 analytically            !
 !        A        100.015    calculate D2E/DX2 analytically            !
 ------------------------------------------------------------------------
 Trust Radius=3.00D-01 FncErr=1.00D-07 GrdErr=1.00D-07
 Number of steps in this run=      2 maximum allowed number of steps=      2.
 GradGradGradGradGradGradGradGradGradGradGradGradGradGradGradGradGradGrad

                          Input orientation:                          
 ---------------------------------------------------------------------
 Center     Atomic      Atomic             Coordinates (Angstroms)
 Number     Number       Type             X           Y           Z
 ---------------------------------------------------------------------
      1          8           0        0.000000    0.000000    0.000000
      2          1           0        0.000000    0.000000    0.989453
      3          1           0        0.974376    0.000000   -0.172072
 ---------------------------------------------------------------------
                    Distance matrix (angstroms):
                    1          2          3
     1  O    0.000000
     2  H    0.989453   0.000000
     3  H    0.989453   1.516097   0.000000
 Symmetry turned off by external request.
 Stoichiometry    H2O
 Framework group  C2V[C2(O),SGV(H2)]
 Deg. of freedom     2
 Full point group                 C2V     NOp   4
 Rotational constants (GHZ):    698.1638569    436.3231728    268.5134878
 Standard basis: STO-3G (5D, 7F)
 Integral buffers will be    131072 words long.
 Raffenetti 1 integral format.
 Two-electron integral symmetry is turned off.
     7 basis functions,    21 primitive gaussians,     7 cartesian basis functions
     5 alpha electrons        5 beta electrons
       nuclear repulsion energy         8.9061243478 Hartrees.
 NAtoms=    3 NActive=    3 NUniq=    3 SFac= 1.00D+00 NAtFMM=   50 NAOKFM=F Big=F
 One-electron integrals computed using PRISM.
 NBasis=     7 RedAO= T  NBF=     7
 NBsUse=     7 1.00D-06 NBFU=     7
 Initial guess read from the checkpoint file:  h2o_freq.chk
 B after Tr=     0.000000    0.000000    0.000000
         Rot=    1.000000    0.000000    0.000000    0.000000 Ang=   0.00 deg.
 Requested convergence on RMS density matrix=1.00D-08 within 128 cycles.
 Requested convergence on MAX density matrix=1.00D-06.
 Requested convergence on             energy=1.00D-06.
 No special actions if energy rises.
 Keep R1 ints in memory in canonical form, NReq=820147.
 SCF Done:  E(RHF) =  -74.9659012077     A.U. after    1 cycles
             Convg  =    0.5222D-10             -V/T =  2.0060
 Range of M.O.s used for correlation:     1     7
 NBasis=     7 NAE=     5 NBE=     5 NFC=     0 NFV=     0
 NROrb=      7 NOA=     5 NOB=     5 NVA=     2 NVB=     2
          Differentiating once with respect to electric field.
                with respect to dipole field.
          Electric field/nuclear overlap derivatives assumed to be zero.
          Keep R1 ints in memory in canonical form, NReq=800739.
          There are     3 degrees of freedom in the 1st order CPHF.  IDoFFX=0.
      3 vectors produced by pass  0 Test12= 3.33D-16 3.33D-08 XBig12= 7.24D-01 5.28D-01.
 AX will form     3 AO Fock derivatives at one time.
      2 vectors produced by pass  1 Test12= 3.33D-16 3.33D-08 XBig12= 5.52D-03 5.78D-02.
      2 vectors produced by pass  2 Test12= 3.33D-16 3.33D-08 XBig12= 6.34D-05 4.84D-03.
      2 vectors produced by pass  3 Test12= 3.33D-16 3.33D-08 XBig12= 1.07D-08 9.97D-05.
 Inverted reduced A of dimension     9 with in-core refinement.
 End of Minotr Frequency-dependent properties file   721 does not exist.
 End of Minotr Frequency-dependent properties file   722 does not exist.
 Symmetrizing basis deriv contribution to polar:
 IMax=3 JMax=2 DiffMx= 0.00D+00
 G2DrvN: will do     4 centers at a time, making    1 passes doing MaxLOS=1.
 Calling FoFCou, ICntrl=  3107 FMM=F I1Cent=   0 AccDes= 0.00D+00.
 FoFDir/FoFCou used for L=0 through L=1.
 End of G2Drv Frequency-dependent properties file   721 does not exist.
 End of G2Drv Frequency-dependent properties file   722 does not exist.
          IDoAtm=111
          Differentiating once with respect to electric field.
                with respect to dipole field.
          Differentiating once with respect to nuclear coordinates.
          Keep R1 ints in memory in canonical form, NReq=800805.
          There are    12 degrees of freedom in the 1st order CPHF.  IDoFFX=5.
 Will reuse    3 saved solutions.
      6 vectors produced by pass  0 Test12= 8.33D-17 8.33D-09 XBig12= 2.68D-02 1.64D-01.
 AX will form     6 AO Fock derivatives at one time.
      4 vectors produced by pass  1 Test12= 8.33D-17 8.33D-09 XBig12= 8.27D-05 6.52D-03.
 Inverted reduced A of dimension    10 with in-core refinement.
 Isotropic polarizability for W=    0.000000        2.71 Bohr**3.
 End of Minotr Frequency-dependent properties file   721 does not exist.
 End of Minotr Frequency-dependent properties file   722 does not exist.

 **********************************************************************

            Population analysis using the SCF density.

 **********************************************************************

 Alpha  occ. eigenvalues --  -20.25160  -1.25754  -0.59381  -0.45975  -0.39262
 Alpha virt. eigenvalues --    0.58177   0.69259
          Condensed to atoms (all electrons):
              1          2          3
     1  O    7.822748   0.253864   0.253864
     2  H    0.253864   0.626298  -0.045400
     3  H    0.253864  -0.045400   0.626298
 Mulliken atomic charges:
              1
     1  O   -0.330476
     2  H    0.165238
     3  H    0.165238
 Sum of Mulliken atomic charges =   0.00000
 Mulliken charges with hydrogens summed into heavy atoms:
              1
     1  O    0.000000
 Sum of Mulliken charges with hydrogens summed into heavy atoms =   0.00000
 APT atomic charges:
              1
     1  O   -0.169031
     2  H    0.084515
     3  H    0.084515
 Sum of APT charges=   0.00000
 APT Atomic charges with hydrogens summed into heavy atoms:
              1
     1  O    0.000000
     2  H    0.000000
     3  H    0.000000
 Sum of APT charges=   0.00000
 Electronic spatial extent (au):  <R**2>=             18.5235
 Charge=              0.0000 electrons
 Dipole moment (field-independent basis, Debye):
    X=              1.3095    Y=              0.0000    Z=              1.0985  Tot=              1.7092
 Quadrupole moment (field-independent basis, Debye-Ang):
   XX=             -4.7280   YY=             -6.1257   ZZ=             -4.6563
   XY=              0.0000   XZ=             -0.2030   YZ=              0.0000
 Traceless Quadrupole moment (field-independent basis, Debye-Ang):
   XX=              0.4420   YY=             -0.9557   ZZ=              0.5137
   XY=              0.0000   XZ=             -0.2030   YZ=              0.0000
 Octapole moment (field-independent basis, Debye-Ang**2):
  XXX=             -0.8365  YYY=              0.0000  ZZZ=             -0.5162  XYY=             -0.6116
  XXY=              0.0000  XXZ=             -0.6513  XZZ=             -0.5553  YZZ=              0.0000
  YYZ=             -0.5131  XYZ=              0.0000
 Hexadecapole moment (field-independent basis, Debye-Ang**3):
 XXXX=             -5.5290 YYYY=             -3.2654 ZZZZ=             -5.7200 XXXY=              0.0000
 XXXZ=              0.1716 YYYX=              0.0000 YYYZ=              0.0000 ZZZX=              0.3693
 ZZZY=              0.0000 XXYY=             -1.6649 XXZZ=             -2.2365 YYZZ=             -1.7074
 XXYZ=              0.0000 YYXZ=              0.1204 ZZXY=              0.0000
 N-N= 8.906124347769D+00 E-N=-1.963519260615D+02  KE= 7.451852474361D+01
  Exact polarizability:   3.782   0.000   0.040  -1.448   0.000   4.293
 Approx polarizability:   3.157   0.000   0.020  -0.655   0.000   3.389
 Calling FoFJK, ICntrl=    100127 FMM=F ISym2X=0 I1Cent= 0 IOpClX= 0 NMat=1 NMatS=1 NMatT=0.
 Full mass-weighted force constant matrix:
 Low frequencies ---   -0.0017   -0.0016   -0.0015   16.3424   25.4003   35.3583
 Low frequencies --- 2170.2443 4139.5837 4390.5188
 Harmonic frequencies (cm**-1), IR intensities (KM/Mole), Raman scattering
 activities (A**4/AMU), depolarization ratios for plane and unpolarized
 incident light, reduced masses (AMU), force constants (mDyne/A),
 and normal coordinates:
                     1                      2                      3
                     A                      A                      A
 Frequencies --  2170.2443              4139.5837              4390.5188
 Red. masses --     1.0785                 1.0491                 1.0773
 Frc consts  --     2.9928                10.5921                12.2360
 IR Inten    --     7.2314                44.3020                29.9937
 Raman Activ --     9.2685                47.8217                21.5625
 Depolar (P) --     0.7246                 0.1791                 0.7500
 Depolar (U) --     0.8403                 0.3038                 0.8571
  Atom  AN      X      Y      Z        X      Y      Z        X      Y      Z
     1   8     0.05   0.00   0.04     0.04   0.00   0.03    -0.04   0.00   0.05
     2   1    -0.71   0.00  -0.01     0.05   0.00  -0.70     0.00   0.00  -0.71
     3   1    -0.13   0.00  -0.69    -0.69   0.00   0.17     0.69   0.00  -0.12

 -------------------
 - Thermochemistry -
 -------------------
 Temperature   298.150 Kelvin.  Pressure   1.00000 Atm.
 Atom     1 has atomic number  8 and mass  15.99491
 Atom     2 has atomic number  1 and mass   1.00783
 Atom     3 has atomic number  1 and mass   1.00783
 Molecular mass:    18.01056 amu.
 Principal axes and moments of inertia in atomic units:
                           1         2         3
     Eigenvalues --     2.58498   4.13625   6.72123
           X           -0.64269   0.76613   0.00000
           Y            0.00000   0.00000   1.00000
           Z            0.76613   0.64269   0.00000
 This molecule is an asymmetric top.
 Rotational symmetry number  2.
 Rotational temperatures (Kelvin)     33.50654    20.94018    12.88660
 Rotational constants (GHZ):         698.16386   436.32317   268.51349
 Zero-point vibrational energy      64002.3 (Joules/Mol)
                                   15.29691 (Kcal/Mol)
 Vibrational temperatures:   3122.49  5955.93  6316.97
          (Kelvin)
 
 Zero-point correction=                           0.024377 (Hartree/Particle)
 Thermal correction to Energy=                    0.027210
 Thermal correction to Enthalpy=                  0.028154
 Thermal correction to Gibbs Free Energy=         0.006639
 Sum of electronic and zero-point Energies=            -74.941524
 Sum of electronic and thermal Energies=               -74.938691
 Sum of electronic and thermal Enthalpies=             -74.937747
 Sum of electronic and thermal Free Energies=          -74.959262
 
                     E (Thermal)             CV                S
                      KCal/Mol        Cal/Mol-Kelvin    Cal/Mol-Kelvin
 Total                   17.075              5.968             45.282
 Electronic               0.000              0.000              0.000
 Translational            0.889              2.981             34.608
 Rotational               0.889              2.981             10.673
 Vibrational             15.297              0.006              0.001
                       Q            Log10(Q)             Ln(Q)
 Total Bot       0.883343D-03         -3.053871         -7.031797
 Total V=0       0.144156D+09          8.158831         18.786404
 Vib (Bot)       0.612788D-11        -11.212690        -25.818172
 Vib (V=0)       0.100003D+01          0.000012          0.000028
 Electronic      0.100000D+01          0.000000          0.000000
 Translational   0.300432D+07          6.477746         14.915562
 Rotational      0.479814D+02          1.681073          3.870814
 -------------------------------------------------------------------
 Center     Atomic                   Forces (Hartrees/Bohr)
 Number     Number              X              Y              Z
 -------------------------------------------------------------------
      1        8           0.000077972    0.000000000    0.000065409
      2        1          -0.000029608    0.000000000   -0.000043884
      3        1          -0.000048364    0.000000000   -0.000021525
 -------------------------------------------------------------------
 Cartesian Forces:  Max     0.000077972 RMS     0.000042115
 -----------------------------------------------------------------------------------------------
                       Internal Coordinate Forces (Hartree/Bohr or radian)
  Cent   Atom   N1       Length/X         N2         Alpha/Y        N3         Beta/Z          J
 -----------------------------------------------------------------------------------------------
      1  O 
      2  H        1  -0.000044(     1)
      3  H        1  -0.000044(     2)      2   0.000055(     3)
 -----------------------------------------------------------------------------------------------
 Internal  Forces:  Max     0.000055361 RMS     0.000048015

 GradGradGradGradGradGradGradGradGradGradGradGradGradGradGradGradGradGrad
 Berny optimization.
 Search for a local minimum.
 Step number   1 out of a maximum of    2
 All quantities printed in internal units (Hartrees-Bohrs-Radians)
 Second derivative matrix not updated -- analytic derivatives used.
 The second derivative matrix:
                           R         A
           R            1.24662
           A            0.07540   0.29693
 ITU=  0
     Eigenvalues ---    0.29098   1.25257
 Angle between quadratic step and forces=  35.97 degrees.
 Linear search not attempted -- first point.
 Variable       Old X    -DE/DX   Delta X   Delta X   Delta X     New X
                                 (Linear)    (Quad)   (Total)
    R         1.86980  -0.00009   0.00000  -0.00008  -0.00008   1.86971
    A         1.74559   0.00006   0.00000   0.00021   0.00021   1.74580
         Item               Value     Threshold  Converged?
 Maximum Force            0.000088     0.000450     YES
 RMS     Force            0.000073     0.000300     YES
 Maximum Displacement     0.000208     0.001800     YES
 RMS     Displacement     0.000158     0.001200     YES
 Predicted change in Energy=-9.384394D-09
 Optimization completed.
    -- Stationary point found.
                       ----------------------------
                       !   Optimized Parameters   !
                       ! (Angstroms and Degrees)  !
 ----------------------                            ----------------------
 !      Name          Value   Derivative information (Atomic Units)     !
 ------------------------------------------------------------------------
 !        R          0.9895   -DE/DX =   -0.0001                        !
 !        A        100.015    -DE/DX =    0.0001                        !
 ------------------------------------------------------------------------
 GradGradGradGradGradGradGradGradGradGradGradGradGradGradGradGradGradGrad

 1\1\GINC-KRUCK\Freq\RHF\STO-3G\H2O1\LAUVERGN\26-Oct-2013\1\\#N Geom=Al
 lCheck Guess=TCheck SCRF=Check GenChk RHF/STO-3G Freq\\\0,1\O\H,1,R\H,
 1,R,2,A\\R=0.98945321\A=100.01498903\\Version=EM64M-G09RevB.01\HF=-74.
 9659012\RMSD=5.222e-11\RMSF=4.211e-05\ZeroPoint=0.0243772\Thermal=0.02
 721\Dipole=0.515188,0.,0.4321793\DipoleDeriv=0.0362251,0.,0.0564929,0.
 ,-0.5595903,0.,0.0564929,0.,0.0162722,0.168365,0.,-0.0934762,0.,0.2797
 952,0.,-0.0288794,0.,-0.1946137,-0.2045902,0.,0.0369833,0.,0.2797952,0
 .,-0.0276135,0.,0.1783415\Polar=3.7817566,0.,0.0400533,-1.4482276,0.,4
 .2932612\PolarDeriv=-4.9918158,0.,0.0139072,-0.3332246,0.,-1.1454727,0
 .,-1.6109491,0.,0.,-1.3513878,0.,-0.5156839,0.,0.0116664,-0.9279683,0.
 ,-4.6327447,-0.4407457,0.,-0.0270406,1.8029695,0.,0.5198432,0.,-0.4211
 45,0.,0.,2.1379105,0.,0.3495767,0.,0.0181119,-0.8846569,0.,5.7883873,5
 .4325615,0.,0.0131334,-1.4697449,0.,0.6256294,0.,2.0320941,0.,0.,-0.78
 65227,0.,0.1661073,0.,-0.0297783,1.8126252,0.,-1.1556426\HyperPolar=8.
 5085949,0.,-0.0584308,0.,-1.8768572,0.,-0.0490162,0.0174829,0.,9.02918
 56\PG=C02V [C2(O1),SGV(H2)]\NImag=0\\0.70460276,0.,0.00008469,-0.08310
 373,0.,0.73395446,-0.07986882,0.,-0.06696457,0.08495512,0.,-0.00004235
 ,0.,0.,0.00002627,0.05384690,0.,-0.63940979,-0.02017949,0.,0.65393989,
 -0.62473394,0.,0.15006830,-0.00508630,0.,-0.03366741,0.62982024,0.,-0.
 00004235,0.,0.,0.00001608,0.,0.,0.00002627,0.02925683,0.,-0.09454467,0
 .08714406,0.,-0.01453010,-0.11640089,0.,0.10907477\\-0.00007797,0.,-0.
 00006541,0.00002961,0.,0.00004388,0.00004836,0.,0.00002153\\\@


 A people that values its privileges above its principles soon loses both.
 -- Dwight D. Eisenhower
 Job cpu time:  0 days  0 hours  0 minutes  1.2 seconds.
 File lengths (MBytes):  RWF=      5 Int=      0 D2E=      0 Chk=      1 Scr=      1
 Normal termination of Gaussian 09 at Sat Oct 26 09:45:11 2013.
