                                                                        
Freq      RHF                                                         STO-3G              
Number of atoms                            I                3
Info1-9                                    I   N=           9
          12          12        1002           0           0         100
           6           1           2
Charge                                     I                0
Multiplicity                               I                1
Number of electrons                        I               10
Number of alpha electrons                  I                5
Number of beta electrons                   I                5
Number of basis functions                  I                7
Number of independent functions            I                7
Number of point charges in /Mol/           I                0
Number of translation vectors              I                0
Atomic numbers                             I   N=           3
           8           1           1
Nuclear charges                            R   N=           3
  8.00000000E+00  1.00000000E+00  1.00000000E+00
Current cartesian coordinates              R   N=           9
  0.00000000E+00  0.00000000E+00  0.00000000E+00  0.00000000E+00  0.00000000E+00
  1.86979559E+00  1.84130419E+00  0.00000000E+00 -3.25168307E-01
Force Field                                I                0
Int Atom Types                             I   N=           3
           0           0           0
MM charges                                 R   N=           3
  0.00000000E+00  0.00000000E+00  0.00000000E+00
Integer atomic weights                     I   N=           3
          16           1           1
Real atomic weights                        R   N=           3
  1.59949146E+01  1.00782504E+00  1.00782504E+00
Atom fragment info                         I   N=           3
           0           0           0
Atom residue num                           I   N=           3
           0           0           0
Nuclear spins                              I   N=           3
           0           1           1
Nuclear ZEff                               R   N=           3
 -5.60000000E+00 -1.00000000E+00 -1.00000000E+00
Nuclear QMom                               R   N=           3
  0.00000000E+00  0.00000000E+00  0.00000000E+00
Nuclear GFac                               R   N=           3
  0.00000000E+00  2.79284600E+00  2.79284600E+00
MicOpt                                     I   N=           3
          -1          -1          -1
Number of contracted shells                I                4
Number of primitive shells                 I               12
Pure/Cartesian d shells                    I                0
Pure/Cartesian f shells                    I                0
Highest angular momentum                   I                1
Largest degree of contraction              I                3
Shell types                                I   N=           4
           0          -1           0           0
Number of primitives per shell             I   N=           4
           3           3           3           3
Shell to atom map                          I   N=           4
           1           1           2           3
Primitive exponents                        R   N=          12
  1.30709321E+02  2.38088661E+01  6.44360831E+00  5.03315132E+00  1.16959612E+00
  3.80388960E-01  3.42525091E+00  6.23913730E-01  1.68855404E-01  3.42525091E+00
  6.23913730E-01  1.68855404E-01
Contraction coefficients                   R   N=          12
  1.54328967E-01  5.35328142E-01  4.44634542E-01 -9.99672292E-02  3.99512826E-01
  7.00115469E-01  1.54328967E-01  5.35328142E-01  4.44634542E-01  1.54328967E-01
  5.35328142E-01  4.44634542E-01
P(S=P) Contraction coefficients            R   N=          12
  0.00000000E+00  0.00000000E+00  0.00000000E+00  1.55916275E-01  6.07683719E-01
  3.91957393E-01  0.00000000E+00  0.00000000E+00  0.00000000E+00  0.00000000E+00
  0.00000000E+00  0.00000000E+00
Coordinates of each shell                  R   N=          12
  0.00000000E+00  0.00000000E+00  0.00000000E+00  0.00000000E+00  0.00000000E+00
  0.00000000E+00  0.00000000E+00  0.00000000E+00  1.86979559E+00  1.84130419E+00
  0.00000000E+00 -3.25168307E-01
Constraint Structure                       R   N=           9
  0.00000000E+00  0.00000000E+00  0.00000000E+00  0.00000000E+00  0.00000000E+00
  1.86979559E+00  1.84130419E+00  0.00000000E+00 -3.25168307E-01
Num ILSW                                   I              100
ILSW                                       I   N=         100
           0           0           0           0           2           0
           0           0           0           0           0          -1
           0           0           0           0           0           0
           0           0           1           0           1           0
           1           1           0           0           0           0
           0           0      100000           0          -1           0
           0           0           0           0           0           0
           0           0           0           1           0           0
           0           0           1           0           0           0
           0           0           4          40           0           0
           0           0           0           0           0           0
           0           0           0           0           0           0
           0           0           0           0           0           0
           0           0           0           0           0           0
           0           0           0           0           0           0
           0           0           0           0           0           0
           0           0           0           0
Num RLSW                                   I               40
RLSW                                       R   N=          40
  1.00000000E+00  1.00000000E+00  1.00000000E+00  1.00000000E+00  1.00000000E+00
  0.00000000E+00  0.00000000E+00  1.00000000E+00  0.00000000E+00  0.00000000E+00
  0.00000000E+00  0.00000000E+00  1.00000000E+00  0.00000000E+00  0.00000000E+00
  0.00000000E+00  0.00000000E+00  1.00000000E+00  0.00000000E+00  0.00000000E+00
  0.00000000E+00  0.00000000E+00  1.00000000E+00  0.00000000E+00  0.00000000E+00
  0.00000000E+00  0.00000000E+00  1.00000000E+00  0.00000000E+00  0.00000000E+00
  0.00000000E+00  0.00000000E+00  1.00000000E+00  0.00000000E+00  0.00000000E+00
  0.00000000E+00  0.00000000E+00  0.00000000E+00  1.00000000E+00  1.00000000E+00
MxBond                                     I                2
NBond                                      I   N=           3
           2           1           1
IBond                                      I   N=           6
           2           3           1           0           1           0
RBond                                      R   N=           6
  1.00000000E+00  1.00000000E+00  1.00000000E+00  0.00000000E+00  1.00000000E+00
  0.00000000E+00
Virial Ratio                               R      2.006003560398396E+00
SCF Energy                                 R     -7.496590120770890E+01
Total Energy                               R     -7.496590120770890E+01
RMS Force                                  R      4.211468705597925E-05
RMS Density                                R      5.221859216558884E-11
External E-field                           R   N=          35
  0.00000000E+00  0.00000000E+00  0.00000000E+00  0.00000000E+00  0.00000000E+00
  0.00000000E+00  0.00000000E+00  0.00000000E+00  0.00000000E+00  0.00000000E+00
  0.00000000E+00  0.00000000E+00  0.00000000E+00  0.00000000E+00  0.00000000E+00
  0.00000000E+00  0.00000000E+00  0.00000000E+00  0.00000000E+00  0.00000000E+00
  0.00000000E+00  0.00000000E+00  0.00000000E+00  0.00000000E+00  0.00000000E+00
  0.00000000E+00  0.00000000E+00  0.00000000E+00  0.00000000E+00  0.00000000E+00
  0.00000000E+00  0.00000000E+00  0.00000000E+00  0.00000000E+00  0.00000000E+00
IOpCl                                      I                0
IROHF                                      I                0
Alpha Orbital Energies                     R   N=           7
 -2.02515964E+01 -1.25754079E+00 -5.93812739E-01 -4.59752220E-01 -3.92622788E-01
  5.81770420E-01  6.92593942E-01
Alpha MO coefficients                      R   N=          49
  9.94216534E-01  2.58461308E-02  3.19031304E-03 -1.54056697E-16  2.67627945E-03
 -5.58330738E-03 -5.58330738E-03 -2.33766650E-01  8.44462687E-01  9.41065746E-02
  1.67711045E-16  7.89438177E-02  1.55589365E-01  1.55589365E-01 -4.70898659E-11
  1.99235048E-10 -3.93785074E-01  8.05416155E-16  4.69419460E-01  4.49229665E-01
 -4.49229665E-01  1.04040000E-01 -5.38182290E-01  5.79063542E-01  7.62439601E-16
  4.85762945E-01  2.95131157E-01  2.95131157E-01  2.44507023E-16 -2.42733404E-16
 -4.39792128E-16  1.00000000E+00 -1.13042683E-15 -2.15768780E-17  6.19614891E-16
 -1.25808617E-01  8.20046507E-01  5.85021744E-01  6.34487661E-16  4.90761141E-01
 -7.69119101E-01 -7.69119102E-01  9.47644453E-11 -6.00626858E-10  6.16815978E-01
 -7.05677868E-17 -7.35287962E-01  8.14624167E-01 -8.14624166E-01
Total SCF Density                          R   N=          28
  2.10787537E+00 -4.55406096E-01  2.00685086E+00  8.28373091E-02 -4.64179590E-01
  9.98494992E-01  2.62920551E-16 -1.03084189E-15 -6.00321576E-16  2.00000000E+00
  6.94902930E-02 -3.89389468E-01  2.07749811E-01 -7.38312909E-16  9.25119115E-01
 -2.24343508E-02 -5.51785113E-02  1.72478530E-02  1.18442767E-15  7.33017606E-01
  6.26297832E-01 -2.24343508E-02 -5.51785112E-02  7.24847600E-01  1.01954389E-15
 -1.10490982E-01 -1.80931336E-01  6.26297831E-01
QEq coupling tensors                       R   N=          18
 -1.21593846E+00  3.42992422E-16  2.72508121E+00  8.30152076E-01  3.44056473E-16
 -1.50914275E+00  1.71108201E-01  1.89321859E-17  2.32115064E-01  3.50695200E-02
 -7.81666244E-17 -4.03223266E-01 -3.73841904E-01 -4.70362350E-17  2.32115064E-01
  1.31305929E-01  3.06407261E-17  1.41726840E-01
Mulliken Charges                           R   N=           3
 -3.30475814E-01  1.65237907E-01  1.65237907E-01
ONIOM Charges                              I   N=          16
           0           0           0           0           0           0
           0           0           0           0           0           0
           0           0           0           0
ONIOM Multiplicities                       I   N=          16
           1           0           0           0           0           0
           0           0           0           0           0           0
           0           0           0           0
Atom Layers                                I   N=           3
           1           1           1
Atom Modifiers                             I   N=           3
           0           0           0
Force Field                                I                0
Int Atom Modified Types                    I   N=           3
           0           0           0
Link Atoms                                 I   N=           3
           0           0           0
Atom Modified MM Charges                   R   N=           3
  0.00000000E+00  0.00000000E+00  0.00000000E+00
Link Distances                             R   N=          12
  0.00000000E+00  0.00000000E+00  0.00000000E+00  0.00000000E+00  0.00000000E+00
  0.00000000E+00  0.00000000E+00  0.00000000E+00  0.00000000E+00  0.00000000E+00
  0.00000000E+00  0.00000000E+00
Cartesian Gradient                         R   N=           9
 -7.79721299E-05  4.93993391E-16 -6.54090350E-05  2.96082326E-05 -2.64607565E-16
  4.38835598E-05  4.83638973E-05 -2.29385825E-16  2.15254751E-05
Cartesian Force Constants                  R   N=          45
  7.04602763E-01  4.21849635E-16  8.46923056E-05 -8.31037259E-02  5.38851415E-16
  7.33954456E-01 -7.98688209E-02 -5.65150871E-17 -6.69645740E-02  8.49551187E-02
  3.11479817E-17 -4.23462046E-05 -5.38127706E-16 -5.76256804E-18  2.62661744E-05
  5.38468986E-02 -4.31316992E-16 -6.39409789E-01 -2.01794874E-02  4.58336571E-16
  6.53939888E-01 -6.24733942E-01 -3.65334548E-16  1.50068300E-01 -5.08629774E-03
 -2.53854136E-17 -3.36674112E-02  6.29820240E-01 -4.52997617E-16 -4.23461027E-05
 -7.23709498E-19  6.22776551E-17  1.60800303E-05 -2.70195797E-17  3.90719962E-16
  2.62660724E-05  2.92568273E-02 -1.07534424E-16 -9.45446675E-02  8.71440614E-02
  7.97911343E-17 -1.45300996E-02 -1.16400889E-01  2.77432892E-17  1.09074767E-01
Dipole Moment                              R   N=           3
  5.15188022E-01  8.83079114E-18  4.32179255E-01
Dipole Derivatives                         R   N=          27
  3.62251373E-02  1.39850214E-16  5.64929048E-02  6.21721736E-16 -5.59590343E-01
  1.59552821E-18  5.64929048E-02  1.67842076E-16  1.62722124E-02  1.68365013E-01
 -5.23641694E-17 -9.34761699E-02 -1.12705415E-16  2.79795172E-01 -7.96755345E-17
 -2.88793989E-02 -9.06859416E-17 -1.94613688E-01 -2.04590150E-01 -8.74860442E-17
  3.69832651E-02 -5.09016321E-16  2.79795172E-01  7.80800063E-17 -2.76135059E-02
 -7.71561340E-17  1.78341476E-01
Polarizability                             R   N=           6
  3.78175665E+00 -3.51554416E-17  4.00532773E-02 -1.44822761E+00  1.02298971E-16
  4.29326118E+00
Polarizability Derivatives                 R   N=          54
 -4.99181579E+00 -3.43089968E-16  1.39071685E-02 -3.33224636E-01 -7.62857860E-17
 -1.14547266E+00 -2.26827305E-16 -1.61094912E+00 -7.54315729E-17 -3.94973591E-16
 -1.35138777E+00  1.66318040E-15 -5.15683948E-01 -4.05800009E-17  1.16664004E-02
 -9.27968345E-01 -4.27404286E-16 -4.63274466E+00 -4.40745706E-01  1.70701222E-16
 -2.70405800E-02  1.80296952E+00  5.93368680E-17  5.19843208E-01  3.70159597E-16
 -4.21144972E-01  9.40686965E-17  3.86513558E-16  2.13791051E+00 -1.65988179E-15
  3.49576676E-01 -2.95562345E-17  1.81119093E-02 -8.84656860E-01  3.32213965E-16
  5.78838726E+00  5.43256149E+00  1.46927354E-16  1.31334115E-02 -1.46974489E+00
  1.69489180E-17  6.25629450E-01 -1.43332292E-16  2.03209410E+00 -6.95599086E-17
  8.46003273E-18 -7.86522737E-01 -3.29860640E-18  1.66107272E-01  7.01362354E-17
 -2.97783097E-02  1.81262520E+00  6.97289282E-17 -1.15564260E+00
HyperPolarizability                        R   N=          10
  8.50859490E+00  1.83599132E-15 -5.84308093E-02 -6.51554055E-16 -1.87685715E+00
 -1.03201316E-16 -4.90162477E-02  1.74828966E-02  2.37830603E-15  9.02918562E+00
