 Entering Gaussian System, Link 0=g09
 Initial command:
 /Applications/chimie/g09/l1.exe /userTMP/lauvergn/Gau-69951.inp -scrdir=/userTMP/lauvergn/
 Entering Link 1 = /Applications/chimie/g09/l1.exe PID=     69952.
  
 Copyright (c) 1988,1990,1992,1993,1995,1998,2003,2009,2010,
            Gaussian, Inc.  All Rights Reserved.
  
 This is part of the Gaussian(R) 09 program.  It is based on
 the Gaussian(R) 03 system (copyright 2003, Gaussian, Inc.),
 the Gaussian(R) 98 system (copyright 1998, Gaussian, Inc.),
 the Gaussian(R) 94 system (copyright 1995, Gaussian, Inc.),
 the Gaussian 92(TM) system (copyright 1992, Gaussian, Inc.),
 the Gaussian 90(TM) system (copyright 1990, Gaussian, Inc.),
 the Gaussian 88(TM) system (copyright 1988, Gaussian, Inc.),
 the Gaussian 86(TM) system (copyright 1986, Carnegie Mellon
 University), and the Gaussian 82(TM) system (copyright 1983,
 Carnegie Mellon University). Gaussian is a federally registered
 trademark of Gaussian, Inc.
  
 This software contains proprietary and confidential information,
 including trade secrets, belonging to Gaussian, Inc.
  
 This software is provided under written license and may be
 used, copied, transmitted, or stored only in accord with that
 written license.
  
 The following legend is applicable only to US Government
 contracts under FAR:
  
                    RESTRICTED RIGHTS LEGEND
  
 Use, reproduction and disclosure by the US Government is
 subject to restrictions as set forth in subparagraphs (a)
 and (c) of the Commercial Computer Software - Restricted
 Rights clause in FAR 52.227-19.
  
 Gaussian, Inc.
 340 Quinnipiac St., Bldg. 40, Wallingford CT 06492
  
  
 ---------------------------------------------------------------
 Warning -- This program may not be used in any manner that
 competes with the business of Gaussian, Inc. or will provide
 assistance to any competitor of Gaussian, Inc.  The licensee
 of this program is prohibited from giving any competitor of
 Gaussian, Inc. access to this program.  By using this program,
 the user acknowledges that Gaussian, Inc. is engaged in the
 business of creating and licensing software in the field of
 computational chemistry and represents and warrants to the
 licensee that it is not a competitor of Gaussian, Inc. and that
 it will not use this program in any manner prohibited above.
 ---------------------------------------------------------------
  

 Cite this work as:
 Gaussian 09, Revision B.01,
 M. J. Frisch, G. W. Trucks, H. B. Schlegel, G. E. Scuseria, 
 M. A. Robb, J. R. Cheeseman, G. Scalmani, V. Barone, B. Mennucci, 
 G. A. Petersson, H. Nakatsuji, M. Caricato, X. Li, H. P. Hratchian, 
 A. F. Izmaylov, J. Bloino, G. Zheng, J. L. Sonnenberg, M. Hada, 
 M. Ehara, K. Toyota, R. Fukuda, J. Hasegawa, M. Ishida, T. Nakajima, 
 Y. Honda, O. Kitao, H. Nakai, T. Vreven, J. A. Montgomery, Jr., 
 J. E. Peralta, F. Ogliaro, M. Bearpark, J. J. Heyd, E. Brothers, 
 K. N. Kudin, V. N. Staroverov, T. Keith, R. Kobayashi, J. Normand, 
 K. Raghavachari, A. Rendell, J. C. Burant, S. S. Iyengar, J. Tomasi, 
 M. Cossi, N. Rega, J. M. Millam, M. Klene, J. E. Knox, J. B. Cross, 
 V. Bakken, C. Adamo, J. Jaramillo, R. Gomperts, R. E. Stratmann, 
 O. Yazyev, A. J. Austin, R. Cammi, C. Pomelli, J. W. Ochterski, 
 R. L. Martin, K. Morokuma, V. G. Zakrzewski, G. A. Voth, 
 P. Salvador, J. J. Dannenberg, S. Dapprich, A. D. Daniels, 
 O. Farkas, J. B. Foresman, J. V. Ortiz, J. Cioslowski, 
 and D. J. Fox, Gaussian, Inc., Wallingford CT, 2010.
 
 ******************************************
 Gaussian 09:  EM64M-G09RevB.01 12-Aug-2010
                 9-Apr-2019 
 ******************************************
 %chk=H2O_freq3
 ---------------------
 #hf sto-3g freq nosym
 ---------------------
 1/10=4,30=1,38=1/1,3;
 2/12=2,15=1,17=6,18=5,40=1/2;
 3/6=3,11=9,16=1,25=1,30=1,71=2/1,2,3;
 4//1;
 5/5=2,38=5,98=1/2;
 8/6=4,10=90,11=11/1;
 10/13=10,15=4,31=1/2;
 11/6=3,8=1,9=11,15=111,16=1,31=1/1,2,10;
 10/6=1,31=1/2;
 6/7=2,8=2,9=2,10=2,18=1,28=1/1;
 7/8=1,10=1,25=1,30=1/1,2,3,16;
 1/10=4,30=1/3;
 99//99;


 Symbolic Z-matrix:
 Charge =  0 Multiplicity = 1
 8                    0     0.        0.        0. 
 1                    0     0.75808   0.        0.6358 
 1                    0    -0.75808   0.        0.6358 
 

 GradGradGradGradGradGradGradGradGradGradGradGradGradGradGradGradGradGrad
 Berny optimization.
 Initialization pass.
 Trust Radius=3.00D-01 FncErr=1.00D-07 GrdErr=1.00D-07
 Number of steps in this run=      2 maximum allowed number of steps=      2.
 GradGradGradGradGradGradGradGradGradGradGradGradGradGradGradGradGradGrad

                          Input orientation:                          
 ---------------------------------------------------------------------
 Center     Atomic      Atomic             Coordinates (Angstroms)
 Number     Number       Type             X           Y           Z
 ---------------------------------------------------------------------
      1          8           0        0.000000    0.000000    0.000000
      2          1           0        0.758083    0.000000    0.635804
      3          1           0       -0.758083    0.000000    0.635804
 ---------------------------------------------------------------------
                    Distance matrix (angstroms):
                    1          2          3
     1  O    0.000000
     2  H    0.989412   0.000000
     3  H    0.989412   1.516166   0.000000
 Symmetry turned off by external request.
 Stoichiometry    H2O
 Framework group  C2V[C2(O),SGV(H2)]
 Deg. of freedom     2
 Full point group                 C2V     NOp   4
 Rotational constants (GHZ):    698.3952981    436.2833454    268.5326271
 Standard basis: STO-3G (5D, 7F)
 Integral buffers will be    131072 words long.
 Raffenetti 1 integral format.
 Two-electron integral symmetry is turned off.
     7 basis functions,    21 primitive gaussians,     7 cartesian basis functions
     5 alpha electrons        5 beta electrons
       nuclear repulsion energy         8.9064648331 Hartrees.
 NAtoms=    3 NActive=    3 NUniq=    3 SFac= 1.00D+00 NAtFMM=   50 NAOKFM=F Big=F
 One-electron integrals computed using PRISM.
 NBasis=     7 RedAO= T  NBF=     7
 NBsUse=     7 1.00D-06 NBFU=     7
 Harris functional with IExCor=  205 diagonalized for initial guess.
 ExpMin= 1.69D-01 ExpMax= 1.31D+02 ExpMxC= 1.31D+02 IAcc=1 IRadAn=         1 AccDes= 0.00D+00
 HarFok:  IExCor=  205 AccDes= 0.00D+00 IRadAn=         1 IDoV= 1
 ScaDFX=  1.000000  1.000000  1.000000  1.000000
 FoFCou: FMM=F IPFlag=           0 FMFlag=      100000 FMFlg1=           0
         NFxFlg=           0 DoJE=T BraDBF=F KetDBF=T FulRan=T
         Omega=  0.000000  0.000000  1.000000  0.000000  0.000000 ICntrl=     500 IOpCl=  0
         NMat0=    1 NMatS0=    1 NMatT0=    0 NMatD0=    1 NMtDS0=    0 NMtDT0=    0
         I1Cent=           4 NGrid=           0.
 Symmetry not used in FoFCou.
 Requested convergence on RMS density matrix=1.00D-08 within 128 cycles.
 Requested convergence on MAX density matrix=1.00D-06.
 Requested convergence on             energy=1.00D-06.
 No special actions if energy rises.
 Keep R1 ints in memory in canonical form, NReq=820147.
 SCF Done:  E(RHF) =  -74.9659012171     A.U. after    7 cycles
             Convg  =    0.2287D-09             -V/T =  2.0060
 Range of M.O.s used for correlation:     1     7
 NBasis=     7 NAE=     5 NBE=     5 NFC=     0 NFV=     0
 NROrb=      7 NOA=     5 NOB=     5 NVA=     2 NVB=     2
          Differentiating once with respect to electric field.
                with respect to dipole field.
          Electric field/nuclear overlap derivatives assumed to be zero.
          Keep R1 ints in memory in canonical form, NReq=800739.
          There are     3 degrees of freedom in the 1st order CPHF.  IDoFFX=0.
      3 vectors produced by pass  0 Test12= 3.33D-16 3.33D-08 XBig12= 8.42D-01 6.90D-01.
 AX will form     3 AO Fock derivatives at one time.
      2 vectors produced by pass  1 Test12= 3.33D-16 3.33D-08 XBig12= 8.36D-03 7.20D-02.
      2 vectors produced by pass  2 Test12= 3.33D-16 3.33D-08 XBig12= 1.07D-04 6.31D-03.
      2 vectors produced by pass  3 Test12= 3.33D-16 3.33D-08 XBig12= 6.37D-09 7.70D-05.
 Inverted reduced A of dimension     9 with in-core refinement.
 End of Minotr Frequency-dependent properties file   721 does not exist.
 End of Minotr Frequency-dependent properties file   722 does not exist.
 Symmetrizing basis deriv contribution to polar:
 IMax=3 JMax=2 DiffMx= 0.00D+00
 G2DrvN: will do     4 centers at a time, making    1 passes doing MaxLOS=1.
 Calling FoFCou, ICntrl=  3107 FMM=F I1Cent=   0 AccDes= 0.00D+00.
 FoFDir/FoFCou used for L=0 through L=1.
 End of G2Drv Frequency-dependent properties file   721 does not exist.
 End of G2Drv Frequency-dependent properties file   722 does not exist.
          IDoAtm=111
          Differentiating once with respect to electric field.
                with respect to dipole field.
          Differentiating once with respect to nuclear coordinates.
          Keep R1 ints in memory in canonical form, NReq=800805.
          There are    12 degrees of freedom in the 1st order CPHF.  IDoFFX=5.
 Will reuse    3 saved solutions.
      6 vectors produced by pass  0 Test12= 8.33D-17 8.33D-09 XBig12= 2.68D-02 1.64D-01.
 AX will form     6 AO Fock derivatives at one time.
      4 vectors produced by pass  1 Test12= 8.33D-17 8.33D-09 XBig12= 1.34D-04 8.51D-03.
 Inverted reduced A of dimension    10 with in-core refinement.
 Isotropic polarizability for W=    0.000000        2.70 Bohr**3.
 End of Minotr Frequency-dependent properties file   721 does not exist.
 End of Minotr Frequency-dependent properties file   722 does not exist.

 **********************************************************************

            Population analysis using the SCF density.

 **********************************************************************

 Alpha  occ. eigenvalues --  -20.25158  -1.25755  -0.59385  -0.45973  -0.39262
 Alpha virt. eigenvalues --    0.58179   0.69267
          Condensed to atoms (all electrons):
              1          2          3
     1  O    7.822766   0.253881   0.253881
     2  H    0.253881   0.626255  -0.045399
     3  H    0.253881  -0.045399   0.626255
 Mulliken atomic charges:
              1
     1  O   -0.330528
     2  H    0.165264
     3  H    0.165264
 Sum of Mulliken atomic charges =   0.00000
 Mulliken charges with hydrogens summed into heavy atoms:
              1
     1  O    0.000000
 Sum of Mulliken charges with hydrogens summed into heavy atoms =   0.00000
 APT atomic charges:
              1
     1  O   -0.169098
     2  H    0.084549
     3  H    0.084549
 Sum of APT charges=   0.00000
 APT Atomic charges with hydrogens summed into heavy atoms:
              1
     1  O    0.000000
     2  H    0.000000
     3  H    0.000000
 Sum of APT charges=   0.00000
 Electronic spatial extent (au):  <R**2>=             18.5228
 Charge=              0.0000 electrons
 Dipole moment (field-independent basis, Debye):
    X=              0.0000    Y=              0.0000    Z=              1.7092  Tot=              1.7092
 Quadrupole moment (field-independent basis, Debye-Ang):
   XX=             -4.4856   YY=             -6.1257   ZZ=             -4.8985
   XY=              0.0000   XZ=              0.0000   YZ=              0.0000
 Traceless Quadrupole moment (field-independent basis, Debye-Ang):
   XX=              0.6844   YY=             -0.9557   ZZ=              0.2714
   XY=              0.0000   XZ=              0.0000   YZ=              0.0000
 Octapole moment (field-independent basis, Debye-Ang**2):
  XXX=              0.0000  YYY=              0.0000  ZZZ=             -1.7772  XYY=              0.0000
  XXY=              0.0000  XXZ=             -0.0390  XZZ=              0.0000  YZZ=              0.0000
  YYZ=             -0.7982  XYZ=              0.0000
 Hexadecapole moment (field-independent basis, Debye-Ang**3):
 XXXX=             -6.7335 YYYY=             -3.2653 ZZZZ=             -5.6343 XXXY=              0.0000
 XXXZ=              0.0000 YYYX=              0.0000 YYYZ=              0.0000 ZZZX=              0.0000
 ZZZY=              0.0000 XXYY=             -1.8084 XXZZ=             -1.6764 YYZZ=             -1.5637
 XXYZ=              0.0000 YYXZ=              0.0000 ZZXY=              0.0000
 N-N= 8.906464833077D+00 E-N=-1.963526855804D+02  KE= 7.451860382440D+01
  Exact polarizability:   5.508   0.000   0.040   0.000   0.000   2.566
 Approx polarizability:   3.938   0.000   0.020   0.000   0.000   2.607
 Calling FoFJK, ICntrl=    100127 FMM=F ISym2X=0 I1Cent= 0 IOpClX= 0 NMat=1 NMatS=1 NMatT=0.
 Full mass-weighted force constant matrix:
 Low frequencies ---   -0.0018   -0.0016   -0.0016    6.6776    6.8423    6.9433
 Low frequencies --- 2170.0491 4139.9706 4391.0350
 Harmonic frequencies (cm**-1), IR intensities (KM/Mole), Raman scattering
 activities (A**4/AMU), depolarization ratios for plane and unpolarized
 incident light, reduced masses (AMU), force constants (mDyne/A),
 and normal coordinates:
                     1                      2                      3
                     A                      A                      A
 Frequencies --  2170.0491              4139.9706              4391.0350
 Red. masses --     1.0785                 1.0491                 1.0774
 Frc consts  --     2.9923                10.5940                12.2390
 IR Inten    --     7.2375                44.2870                29.9723
 Raman Activ --     9.2670                47.8205                21.5552
 Depolar (P) --     0.7246                 0.1791                 0.7500
 Depolar (U) --     0.8403                 0.3038                 0.8571
  Atom  AN      X      Y      Z        X      Y      Z        X      Y      Z
     1   8     0.00   0.00   0.07     0.00   0.00  -0.05     0.07   0.00   0.00
     2   1     0.45   0.00  -0.54     0.57   0.00   0.42    -0.54   0.00  -0.45
     3   1    -0.45   0.00  -0.54    -0.57   0.00   0.42    -0.54   0.00   0.45

 -------------------
 - Thermochemistry -
 -------------------
 Temperature   298.150 Kelvin.  Pressure   1.00000 Atm.
 Atom     1 has atomic number  8 and mass  15.99491
 Atom     2 has atomic number  1 and mass   1.00783
 Atom     3 has atomic number  1 and mass   1.00783
 Molecular mass:    18.01056 amu.
 Principal axes and moments of inertia in atomic units:
                           1         2         3
     Eigenvalues --     2.58413   4.13663   6.72075
           X            1.00000   0.00000   0.00000
           Y            0.00000   0.00000   1.00000
           Z            0.00000   1.00000   0.00000
 This molecule is an asymmetric top.
 Rotational symmetry number  2.
 Rotational temperatures (Kelvin)     33.51765    20.93827    12.88752
 Rotational constants (GHZ):         698.39530   436.28335   268.53263
 Zero-point vibrational energy      64006.5 (Joules/Mol)
                                   15.29793 (Kcal/Mol)
 Vibrational temperatures:   3122.21  5956.49  6317.71
          (Kelvin)
 
 Zero-point correction=                           0.024379 (Hartree/Particle)
 Thermal correction to Energy=                    0.027212
 Thermal correction to Enthalpy=                  0.028156
 Thermal correction to Gibbs Free Energy=         0.006641
 Sum of electronic and zero-point Energies=            -74.941522
 Sum of electronic and thermal Energies=               -74.938690
 Sum of electronic and thermal Enthalpies=             -74.937745
 Sum of electronic and thermal Free Energies=          -74.959260
 
                     E (Thermal)             CV                S
                      KCal/Mol        Cal/Mol-Kelvin    Cal/Mol-Kelvin
 Total                   17.076              5.968             45.282
 Electronic               0.000              0.000              0.000
 Translational            0.889              2.981             34.608
 Rotational               0.889              2.981             10.673
 Vibrational             15.298              0.006              0.001
                       Q            Log10(Q)             Ln(Q)
 Total Bot       0.881698D-03         -3.054680         -7.033661
 Total V=0       0.144133D+09          8.158764         18.786248
 Vib (Bot)       0.611742D-11        -11.213432        -25.819881
 Vib (V=0)       0.100003D+01          0.000012          0.000028
 Electronic      0.100000D+01          0.000000          0.000000
 Translational   0.300432D+07          6.477746         14.915562
 Rotational      0.479739D+02          1.681005          3.870658
 -------------------------------------------------------------------
 Center     Atomic                   Forces (Hartrees/Bohr)
 Number     Number              X              Y              Z
 -------------------------------------------------------------------
      1        8           0.000000000    0.000000000    0.000003629
      2        1          -0.000002634    0.000000000   -0.000001815
      3        1           0.000002634    0.000000000   -0.000001815
 -------------------------------------------------------------------
 Cartesian Forces:  Max     0.000003629 RMS     0.000001933

 GradGradGradGradGradGradGradGradGradGradGradGradGradGradGradGradGradGrad
 Berny optimization.
 Search for a local minimum.
 Step number   1 out of a maximum of    2
 All quantities printed in internal units (Hartrees-Bohrs-Radians)
 Second derivative matrix not updated -- analytic derivatives used.
 The second derivative matrix:
                          X1        Y1        Z1        X2        Y2
           X1           0.80394
           Y1           0.00000   0.00000
           Z1           0.00000   0.00000   0.63489
           X2          -0.40197   0.00000  -0.21631   0.43891
           Y2           0.00000   0.00000   0.00000   0.00000   0.00000
           Z2          -0.33713   0.00000  -0.31745   0.27672   0.00000
           X3          -0.40197   0.00000   0.21631  -0.03694   0.00000
           Y3           0.00000   0.00000   0.00000   0.00000   0.00000
           Z3           0.33713   0.00000  -0.31745  -0.06041   0.00000
                          Z2        X3        Y3        Z3
           Z2           0.30010
           X3           0.06041   0.43891
           Y3           0.00000   0.00000   0.00000
           Z3           0.01735  -0.27672   0.00000   0.30010
 ITU=  0
     Eigenvalues ---    0.25224   0.96369   1.19570
 Angle between quadratic step and forces=  30.90 degrees.
 Linear search not attempted -- first point.
 TrRot=  0.000000  0.000000  0.000001  0.000000  0.000000  0.000000
 Variable       Old X    -DE/DX   Delta X   Delta X   Delta X     New X
                                 (Linear)    (Quad)   (Total)
    X1        0.00000   0.00000   0.00000   0.00000   0.00000   0.00000
    Y1        0.00000   0.00000   0.00000   0.00000   0.00000   0.00000
    Z1        0.00000   0.00000   0.00000   0.00000   0.00000   0.00000
    X2        1.43257   0.00000   0.00000   0.00000   0.00000   1.43256
    Y2        0.00000   0.00000   0.00000   0.00000   0.00000   0.00000
    Z2        1.20149   0.00000   0.00000   0.00000   0.00000   1.20149
    X3       -1.43257   0.00000   0.00000   0.00000   0.00000  -1.43256
    Y3        0.00000   0.00000   0.00000   0.00000   0.00000   0.00000
    Z3        1.20149   0.00000   0.00000   0.00000   0.00000   1.20149
         Item               Value     Threshold  Converged?
 Maximum Force            0.000004     0.000450     YES
 RMS     Force            0.000002     0.000300     YES
 Maximum Displacement     0.000004     0.001800     YES
 RMS     Displacement     0.000002     0.001200     YES
 Predicted change in Energy=-1.631945D-11
 Optimization completed.
    -- Stationary point found.
 GradGradGradGradGradGradGradGradGradGradGradGradGradGradGradGradGradGrad

 1\1\GINC-KRUCK\Freq\RHF\STO-3G\H2O1\LAUVERGN\09-Apr-2019\0\\#hf sto-3g
  freq nosym\\\0,1\O,0.,0.,0.\H,0.758082919,0.,0.635803738\H,-0.7580829
 19,0.,0.635803738\\Version=EM64M-G09RevB.01\HF=-74.9659012\RMSD=2.287e
 -10\RMSF=1.933e-06\ZeroPoint=0.0243788\Thermal=0.0272116\Dipole=0.,0.,
 0.6724525\DipoleDeriv=-0.0311476,0.,0.,0.,-0.5596798,0.,0.,0.,0.083532
 9,0.0155738,0.,-0.1570624,0.,0.2798399,0.,-0.2216398,0.,-0.0417664,0.0
 155738,0.,0.1570624,0.,0.2798399,0.,0.2216398,0.,-0.0417664\Polar=5.50
 81013,0.,0.040061,0.,0.,2.5659297\PolarDeriv=0.,0.,0.,-2.85609,0.,0.,0
 .,0.,0.,0.,-2.1022716,0.,-3.1403152,0.,0.0181704,0.,0.,-4.8695905,4.44
 30849,0.,0.0312649,1.428045,0.,0.2086505,0.,1.9084735,0.,0.,1.0511358,
 0.,1.5701576,0.,-0.0090852,2.224587,0.,2.4347952,-4.4430849,0.,-0.0312
 649,1.428045,0.,-0.2086505,0.,-1.9084735,0.,0.,1.0511358,0.,1.5701576,
 0.,-0.0090852,-2.224587,0.,2.4347952\HyperPolar=0.,0.,0.,0.,7.0124285,
 0.,-0.0762438,0.,0.,4.114286\PG=C02V [C2(O1),SGV(H2)]\NImag=0\\0.80394
 068,0.,0.00000302,0.,0.,0.63489384,-0.40197034,0.,-0.21630721,0.438906
 05,0.,-0.00000151,0.,0.,0.00000167,-0.33713104,0.,-0.31744692,0.276719
 13,0.,0.30010019,-0.40197034,0.,0.21630721,-0.03693571,0.,0.06041191,0
 .43890605,0.,-0.00000151,0.,0.,-0.00000016,0.,0.,0.00000167,0.33713104
 ,0.,-0.31744692,-0.06041191,0.,0.01734673,-0.27671913,0.,0.30010019\\0
 .,0.,-0.00000363,0.00000263,0.,0.00000181,-0.00000263,0.,0.00000181\\\
 @


 BLACK HOLES SUCK.
 Job cpu time:  0 days  0 hours  0 minutes  0.9 seconds.
 File lengths (MBytes):  RWF=      5 Int=      0 D2E=      0 Chk=      1 Scr=      1
 Normal termination of Gaussian 09 at Tue Apr  9 10:21:14 2019.
