 Entering Gaussian System, Link 0=g09
 Initial command:
 /Applications/chimie/g09/l1.exe /userTMP/lauvergn/Gau-41087.inp -scrdir=/userTMP/lauvergn/
 Entering Link 1 = /Applications/chimie/g09/l1.exe PID=     41088.
  
 Copyright (c) 1988,1990,1992,1993,1995,1998,2003,2009,2010,
            Gaussian, Inc.  All Rights Reserved.
  
 This is part of the Gaussian(R) 09 program.  It is based on
 the Gaussian(R) 03 system (copyright 2003, Gaussian, Inc.),
 the Gaussian(R) 98 system (copyright 1998, Gaussian, Inc.),
 the Gaussian(R) 94 system (copyright 1995, Gaussian, Inc.),
 the Gaussian 92(TM) system (copyright 1992, Gaussian, Inc.),
 the Gaussian 90(TM) system (copyright 1990, Gaussian, Inc.),
 the Gaussian 88(TM) system (copyright 1988, Gaussian, Inc.),
 the Gaussian 86(TM) system (copyright 1986, Carnegie Mellon
 University), and the Gaussian 82(TM) system (copyright 1983,
 Carnegie Mellon University). Gaussian is a federally registered
 trademark of Gaussian, Inc.
  
 This software contains proprietary and confidential information,
 including trade secrets, belonging to Gaussian, Inc.
  
 This software is provided under written license and may be
 used, copied, transmitted, or stored only in accord with that
 written license.
  
 The following legend is applicable only to US Government
 contracts under FAR:
  
                    RESTRICTED RIGHTS LEGEND
  
 Use, reproduction and disclosure by the US Government is
 subject to restrictions as set forth in subparagraphs (a)
 and (c) of the Commercial Computer Software - Restricted
 Rights clause in FAR 52.227-19.
  
 Gaussian, Inc.
 340 Quinnipiac St., Bldg. 40, Wallingford CT 06492
  
  
 ---------------------------------------------------------------
 Warning -- This program may not be used in any manner that
 competes with the business of Gaussian, Inc. or will provide
 assistance to any competitor of Gaussian, Inc.  The licensee
 of this program is prohibited from giving any competitor of
 Gaussian, Inc. access to this program.  By using this program,
 the user acknowledges that Gaussian, Inc. is engaged in the
 business of creating and licensing software in the field of
 computational chemistry and represents and warrants to the
 licensee that it is not a competitor of Gaussian, Inc. and that
 it will not use this program in any manner prohibited above.
 ---------------------------------------------------------------
  

 Cite this work as:
 Gaussian 09, Revision B.01,
 M. J. Frisch, G. W. Trucks, H. B. Schlegel, G. E. Scuseria, 
 M. A. Robb, J. R. Cheeseman, G. Scalmani, V. Barone, B. Mennucci, 
 G. A. Petersson, H. Nakatsuji, M. Caricato, X. Li, H. P. Hratchian, 
 A. F. Izmaylov, J. Bloino, G. Zheng, J. L. Sonnenberg, M. Hada, 
 M. Ehara, K. Toyota, R. Fukuda, J. Hasegawa, M. Ishida, T. Nakajima, 
 Y. Honda, O. Kitao, H. Nakai, T. Vreven, J. A. Montgomery, Jr., 
 J. E. Peralta, F. Ogliaro, M. Bearpark, J. J. Heyd, E. Brothers, 
 K. N. Kudin, V. N. Staroverov, T. Keith, R. Kobayashi, J. Normand, 
 K. Raghavachari, A. Rendell, J. C. Burant, S. S. Iyengar, J. Tomasi, 
 M. Cossi, N. Rega, J. M. Millam, M. Klene, J. E. Knox, J. B. Cross, 
 V. Bakken, C. Adamo, J. Jaramillo, R. Gomperts, R. E. Stratmann, 
 O. Yazyev, A. J. Austin, R. Cammi, C. Pomelli, J. W. Ochterski, 
 R. L. Martin, K. Morokuma, V. G. Zakrzewski, G. A. Voth, 
 P. Salvador, J. J. Dannenberg, S. Dapprich, A. D. Daniels, 
 O. Farkas, J. B. Foresman, J. V. Ortiz, J. Cioslowski, 
 and D. J. Fox, Gaussian, Inc., Wallingford CT, 2010.
 
 ******************************************
 Gaussian 09:  EM64M-G09RevB.01 12-Aug-2010
                 7-Apr-2019 
 ******************************************
 %chk=h2o_freq
 ------------------------------------------
 #hf sto-3g opt=(tight,z-matrix) freq nosym
 ------------------------------------------
 1/7=10,10=7,18=40,38=1/1,3;
 2/12=2,15=1,17=6,18=5,29=3,40=1/2;
 3/6=3,11=9,16=1,25=1,30=1,71=1/1,2,3;
 4//1;
 5/5=2,38=5/2;
 6/7=2,8=2,9=2,10=2,28=1/1;
 7/29=1,30=1/1,2,3,16;
 1/7=10,10=7,18=40/3(2);
 2/15=1,29=3/2;
 99//99;
 2/15=1,29=3/2;
 3/6=3,11=9,16=1,25=1,30=1,71=1/1,2,3;
 4/5=5,16=3/1;
 5/5=2,38=5/2;
 7/30=1/1,2,3,16;
 1/7=10,18=40/3(-5);
 2/15=1,29=3/2;
 6/7=2,8=2,9=2,10=2,19=2,28=1/1;
 99/9=1/99;


 Symbolic Z-matrix:
 Charge =  0 Multiplicity = 1
 O
 X                    O     1. 
 H1                   O    R1       X    A
 H2                   O    R2       X    A        H1    180.     0
       Variables:
  R1                    1.                       
  R2                    1.                       
  A                    50.                       
 

 GradGradGradGradGradGradGradGradGradGradGradGradGradGradGradGradGradGrad
 Berny optimization.
 Initialization pass.
                       ----------------------------
                       !    Initial Parameters    !
                       ! (Angstroms and Degrees)  !
 ----------------------                            ----------------------
 !      Name          Value   Derivative information (Atomic Units)     !
 ------------------------------------------------------------------------
 !       R1          1.0      estimate D2E/DX2                          !
 !       R2          1.0      estimate D2E/DX2                          !
 !        A         50.0      estimate D2E/DX2                          !
 ------------------------------------------------------------------------
 Trust Radius=3.00D-01 FncErr=1.00D-07 GrdErr=1.00D-07
 Number of steps in this run=     20 maximum allowed number of steps=    100.
 GradGradGradGradGradGradGradGradGradGradGradGradGradGradGradGradGradGrad

 ---------------------------------------------------------------------------------------------------
                            Z-MATRIX (ANGSTROMS AND DEGREES)
   CD    Cent   Atom    N1       Length/X        N2       Alpha/Y        N3        Beta/Z          J
 ---------------------------------------------------------------------------------------------------
      1      1  O 
      2         X        1   1.000000(     1)
      3      2  H        1   1.000000(     2)      2   50.000(     4)
      4      3  H        1   1.000000(     3)      2   50.000(     5)      3  180.000(     6)      0
 ---------------------------------------------------------------------------------------------------
                         Z-Matrix orientation:                         
 ---------------------------------------------------------------------
 Center     Atomic      Atomic             Coordinates (Angstroms)
 Number     Number       Type             X           Y           Z
 ---------------------------------------------------------------------
      1          8           0        0.000000    0.000000    0.000000
      2         -1           0        0.000000    0.000000    1.000000
      3          1           0        0.766044    0.000000    0.642788
      4          1           0       -0.766044    0.000000    0.642788
 ---------------------------------------------------------------------
                    Distance matrix (angstroms):
                    1          2          3          4
     1  O    0.000000
     2  X    1.000000   0.000000
     3  H    1.000000   0.845237   0.000000
     4  H    1.000000   0.845237   1.532089   0.000000
 Symmetry turned off by external request.
 Stoichiometry    H2O
 Framework group  C2V[C2(O),SGV(H2)]
 Deg. of freedom     2
 Full point group                 C2V     NOp   4
 Rotational constants (GHZ):    683.3016464    427.2618574    262.8834187
 Standard basis: STO-3G (5D, 7F)
 Integral buffers will be    131072 words long.
 Raffenetti 1 integral format.
 Two-electron integral symmetry is turned off.
     7 basis functions,    21 primitive gaussians,     7 cartesian basis functions
     5 alpha electrons        5 beta electrons
       nuclear repulsion energy         8.8122312302 Hartrees.
 NAtoms=    3 NActive=    3 NUniq=    3 SFac= 1.00D+00 NAtFMM=   50 NAOKFM=F Big=F
 One-electron integrals computed using PRISM.
 NBasis=     7 RedAO= T  NBF=     7
 NBsUse=     7 1.00D-06 NBFU=     7
 Harris functional with IExCor=  205 diagonalized for initial guess.
 ExpMin= 1.69D-01 ExpMax= 1.31D+02 ExpMxC= 1.31D+02 IAcc=1 IRadAn=         1 AccDes= 0.00D+00
 HarFok:  IExCor=  205 AccDes= 0.00D+00 IRadAn=         1 IDoV= 1
 ScaDFX=  1.000000  1.000000  1.000000  1.000000
 FoFCou: FMM=F IPFlag=           0 FMFlag=      100000 FMFlg1=           0
         NFxFlg=           0 DoJE=T BraDBF=F KetDBF=T FulRan=T
         Omega=  0.000000  0.000000  1.000000  0.000000  0.000000 ICntrl=     500 IOpCl=  0
         NMat0=    1 NMatS0=    1 NMatT0=    0 NMatD0=    1 NMtDS0=    0 NMtDT0=    0
         I1Cent=           4 NGrid=           0.
 Symmetry not used in FoFCou.
 Requested convergence on RMS density matrix=1.00D-08 within 128 cycles.
 Requested convergence on MAX density matrix=1.00D-06.
 Requested convergence on             energy=1.00D-06.
 No special actions if energy rises.
 Keep R1 ints in memory in canonical form, NReq=820147.
 SCF Done:  E(RHF) =  -74.9656570251     A.U. after    7 cycles
             Convg  =    0.2377D-09             -V/T =  2.0063

 **********************************************************************

            Population analysis using the SCF density.

 **********************************************************************

 Alpha  occ. eigenvalues --  -20.25303  -1.25259  -0.58858  -0.45848  -0.39216
 Alpha virt. eigenvalues --    0.57187   0.68078
          Condensed to atoms (all electrons):
              1          2          3
     1  O    7.818278   0.251575   0.251575
     2  H    0.251575   0.631290  -0.043579
     3  H    0.251575  -0.043579   0.631290
 Mulliken atomic charges:
              1
     1  O   -0.321427
     2  H    0.160714
     3  H    0.160714
 Sum of Mulliken atomic charges =   0.00000
 Mulliken charges with hydrogens summed into heavy atoms:
              1
     1  O    0.000000
 Sum of Mulliken charges with hydrogens summed into heavy atoms =   0.00000
 Electronic spatial extent (au):  <R**2>=             18.6769
 Charge=              0.0000 electrons
 Dipole moment (field-independent basis, Debye):
    X=              0.0000    Y=              0.0000    Z=              1.6944  Tot=              1.6944
 Quadrupole moment (field-independent basis, Debye-Ang):
   XX=             -4.4825   YY=             -6.1345   ZZ=             -4.8976
   XY=              0.0000   XZ=              0.0000   YZ=              0.0000
 Traceless Quadrupole moment (field-independent basis, Debye-Ang):
   XX=              0.6890   YY=             -0.9630   ZZ=              0.2740
   XY=              0.0000   XZ=              0.0000   YZ=              0.0000
 Octapole moment (field-independent basis, Debye-Ang**2):
  XXX=              0.0000  YYY=              0.0000  ZZZ=             -1.8143  XYY=              0.0000
  XXY=              0.0000  XXZ=             -0.0382  XZZ=              0.0000  YZZ=              0.0000
  YYZ=             -0.8141  XYZ=              0.0000
 Hexadecapole moment (field-independent basis, Debye-Ang**3):
 XXXX=             -6.8328 YYYY=             -3.2753 ZZZZ=             -5.7179 XXXY=              0.0000
 XXXZ=              0.0000 YYYX=              0.0000 YYYZ=              0.0000 ZZZX=              0.0000
 ZZZY=              0.0000 XXYY=             -1.8311 XXZZ=             -1.6947 YYZZ=             -1.5816
 XXYZ=              0.0000 YYXZ=              0.0000 ZZXY=              0.0000
 N-N= 8.812231230161D+00 E-N=-1.961628352960D+02  KE= 7.449674561951D+01
 Calling FoFJK, ICntrl=      2127 FMM=F ISym2X=0 I1Cent= 0 IOpClX= 0 NMat=1 NMatS=1 NMatT=0.
 -------------------------------------------------------------------
 Center     Atomic                   Forces (Hartrees/Bohr)
 Number     Number              X              Y              Z
 -------------------------------------------------------------------
      1        8           0.000000000    0.000000000    0.014471102
      2        1          -0.009720922    0.000000000   -0.007235551
      3        1           0.009720922    0.000000000   -0.007235551
 -------------------------------------------------------------------
 Cartesian Forces:  Max     0.014471102 RMS     0.007476718
 -----------------------------------------------------------------------------------------------
                       Internal Coordinate Forces (Hartree/Bohr or radian)
  Cent   Atom   N1       Length/X         N2         Alpha/Y        N3         Beta/Z          J
 -----------------------------------------------------------------------------------------------
      1  O 
         X        1   0.000000(     1)
      2  H        1  -0.012098(     2)      2  -0.001334(     4)
      3  H        1  -0.012098(     3)      2  -0.001334(     5)      3   0.000000(     6)     0
 -----------------------------------------------------------------------------------------------
 Internal  Forces:  Max     0.012097580 RMS     0.007026855

 GradGradGradGradGradGradGradGradGradGradGradGradGradGradGradGradGradGrad
 Berny optimization.
 Search for a local minimum.
 Step number   1 out of a maximum of   20
 All quantities printed in internal units (Hartrees-Bohrs-Radians)
 Second derivative matrix not updated -- first step.
 The second derivative matrix:
                          R1        R2         A
           R1           0.47688
           R2           0.00000   0.47688
           A            0.00000   0.00000   0.64000
 ITU=  0
     Eigenvalues ---    0.47688   0.47688   0.64000
 RFO step:  Lambda=-6.24085309D-04 EMin= 4.76883293D-01
 Linear search not attempted -- first point.
 Variable       Old X    -DE/DX   Delta X   Delta X   Delta X     New X
                                 (Linear)    (Quad)   (Total)
    R1        1.88973  -0.01210   0.00000  -0.02533  -0.02533   1.86439
    R2        1.88973  -0.01210   0.00000  -0.02533  -0.02533   1.86439
    A         0.87266  -0.00267   0.00000  -0.00416  -0.00416   0.86850
         Item               Value     Threshold  Converged?
 Maximum Force            0.012098     0.000015     NO 
 RMS     Force            0.009997     0.000010     NO 
 Maximum Displacement     0.025335     0.000060     NO 
 RMS     Displacement     0.020825     0.000040     NO 
 Predicted change in Energy=-3.124492D-04
 GradGradGradGradGradGradGradGradGradGradGradGradGradGradGradGradGradGrad

 ---------------------------------------------------------------------------------------------------
                            Z-MATRIX (ANGSTROMS AND DEGREES)
   CD    Cent   Atom    N1       Length/X        N2       Alpha/Y        N3        Beta/Z          J
 ---------------------------------------------------------------------------------------------------
      1      1  O 
      2         X        1   1.000000(     1)
      3      2  H        1   0.986593(     2)      2   49.761(     4)
      4      3  H        1   0.986593(     3)      2   49.761(     5)      3  180.000(     6)      0
 ---------------------------------------------------------------------------------------------------
                         Z-Matrix orientation:                         
 ---------------------------------------------------------------------
 Center     Atomic      Atomic             Coordinates (Angstroms)
 Number     Number       Type             X           Y           Z
 ---------------------------------------------------------------------
      1          8           0        0.000000    0.000000    0.000000
      2         -1           0        0.000000    0.000000    1.000000
      3          1           0        0.753127    0.000000    0.637311
      4          1           0       -0.753127    0.000000    0.637311
 ---------------------------------------------------------------------
                    Distance matrix (angstroms):
                    1          2          3          4
     1  O    0.000000
     2  X    1.000000   0.000000
     3  H    0.986593   0.835909   0.000000
     4  H    0.986593   0.835909   1.506255   0.000000
 Symmetry turned off by external request.
 Stoichiometry    H2O
 Framework group  C2V[C2(O),SGV(H2)]
 Deg. of freedom     2
 Full point group                 C2V     NOp   4
 Rotational constants (GHZ):    695.0952760    442.0436431    270.2066062
 Standard basis: STO-3G (5D, 7F)
 Integral buffers will be    131072 words long.
 Raffenetti 1 integral format.
 Two-electron integral symmetry is turned off.
     7 basis functions,    21 primitive gaussians,     7 cartesian basis functions
     5 alpha electrons        5 beta electrons
       nuclear repulsion energy         8.9332093825 Hartrees.
 NAtoms=    3 NActive=    3 NUniq=    3 SFac= 1.00D+00 NAtFMM=   50 NAOKFM=F Big=F
 One-electron integrals computed using PRISM.
 NBasis=     7 RedAO= T  NBF=     7
 NBsUse=     7 1.00D-06 NBFU=     7
 Initial guess read from the read-write file.
 B after Tr=     0.000000    0.000000    0.000000
         Rot=    1.000000    0.000000    0.000000    0.000000 Ang=   0.00 deg.
 Harris functional with IExCor=  205 diagonalized for initial guess.
 ExpMin= 1.69D-01 ExpMax= 1.31D+02 ExpMxC= 1.31D+02 IAcc=1 IRadAn=         1 AccDes= 0.00D+00
 HarFok:  IExCor=  205 AccDes= 0.00D+00 IRadAn=         1 IDoV= 1
 ScaDFX=  1.000000  1.000000  1.000000  1.000000
 FoFCou: FMM=F IPFlag=           0 FMFlag=      100000 FMFlg1=           0
         NFxFlg=           0 DoJE=T BraDBF=F KetDBF=T FulRan=T
         Omega=  0.000000  0.000000  1.000000  0.000000  0.000000 ICntrl=     500 IOpCl=  0
         NMat0=    1 NMatS0=    1 NMatT0=    0 NMatD0=    1 NMtDS0=    0 NMtDT0=    0
         I1Cent=           4 NGrid=           0.
 Symmetry not used in FoFCou.
 Requested convergence on RMS density matrix=1.00D-08 within 128 cycles.
 Requested convergence on MAX density matrix=1.00D-06.
 Requested convergence on             energy=1.00D-06.
 No special actions if energy rises.
 Keep R1 ints in memory in canonical form, NReq=820147.
 SCF Done:  E(RHF) =  -74.9658683827     A.U. after    6 cycles
             Convg  =    0.8047D-09             -V/T =  2.0059
 Calling FoFJK, ICntrl=      2127 FMM=F ISym2X=0 I1Cent= 0 IOpClX= 0 NMat=1 NMatS=1 NMatT=0.
 -------------------------------------------------------------------
 Center     Atomic                   Forces (Hartrees/Bohr)
 Number     Number              X              Y              Z
 -------------------------------------------------------------------
      1        8           0.000000000    0.000000000   -0.002275290
      2        1           0.003860212    0.000000000    0.001137645
      3        1          -0.003860212    0.000000000    0.001137645
 -------------------------------------------------------------------
 Cartesian Forces:  Max     0.003860212 RMS     0.002043089
 -----------------------------------------------------------------------------------------------
                       Internal Coordinate Forces (Hartree/Bohr or radian)
  Cent   Atom   N1       Length/X         N2         Alpha/Y        N3         Beta/Z          J
 -----------------------------------------------------------------------------------------------
      1  O 
         X        1   0.000000(     1)
      2  H        1   0.003682(     2)      2   0.003030(     4)
      3  H        1   0.003682(     3)      2   0.003030(     5)      3   0.000000(     6)     0
 -----------------------------------------------------------------------------------------------
 Internal  Forces:  Max     0.003681624 RMS     0.002752863

 GradGradGradGradGradGradGradGradGradGradGradGradGradGradGradGradGradGrad
 Berny optimization.
 Search for a local minimum.
 Step number   2 out of a maximum of   20
 All quantities printed in internal units (Hartrees-Bohrs-Radians)
 Update second derivatives using D2CorN and points    1    2
 DE= -2.11D-04 DEPred=-3.12D-04 R= 6.76D-01
 SS=  1.41D+00  RLast= 3.61D-02 DXNew= 5.0454D-01 1.0821D-01
 Trust test= 6.76D-01 RLast= 3.61D-02 DXMaxT set to 3.00D-01
 The second derivative matrix:
                          R1        R2         A
           R1           0.54888
           R2           0.07200   0.54888
           A            0.06494   0.06494   0.65940
 ITU=  1  0
     Eigenvalues ---    0.47688   0.54630   0.73398
 RFO step:  Lambda=-2.45828304D-05 EMin= 4.76883293D-01
 Quartic linear search produced a step of -0.24641.
 Variable       Old X    -DE/DX   Delta X   Delta X   Delta X     New X
                                 (Linear)    (Quad)   (Total)
    R1        1.86439   0.00368   0.00624  -0.00116   0.00509   1.86948
    R2        1.86439   0.00368   0.00624  -0.00116   0.00509   1.86948
    A         0.86850   0.00606   0.00103   0.00613   0.00715   0.87565
         Item               Value     Threshold  Converged?
 Maximum Force            0.006060     0.000015     NO 
 RMS     Force            0.004613     0.000010     NO 
 Maximum Displacement     0.007154     0.000060     NO 
 RMS     Displacement     0.005857     0.000040     NO 
 Predicted change in Energy=-4.314117D-05
 GradGradGradGradGradGradGradGradGradGradGradGradGradGradGradGradGradGrad

 ---------------------------------------------------------------------------------------------------
                            Z-MATRIX (ANGSTROMS AND DEGREES)
   CD    Cent   Atom    N1       Length/X        N2       Alpha/Y        N3        Beta/Z          J
 ---------------------------------------------------------------------------------------------------
      1      1  O 
      2         X        1   1.000000(     1)
      3      2  H        1   0.989285(     2)      2   50.171(     4)
      4      3  H        1   0.989285(     3)      2   50.171(     5)      3  180.000(     6)      0
 ---------------------------------------------------------------------------------------------------
                         Z-Matrix orientation:                         
 ---------------------------------------------------------------------
 Center     Atomic      Atomic             Coordinates (Angstroms)
 Number     Number       Type             X           Y           Z
 ---------------------------------------------------------------------
      1          8           0        0.000000    0.000000    0.000000
      2         -1           0        0.000000    0.000000    1.000000
      3          1           0        0.759735    0.000000    0.633631
      4          1           0       -0.759735    0.000000    0.633631
 ---------------------------------------------------------------------
                    Distance matrix (angstroms):
                    1          2          3          4
     1  O    0.000000
     2  X    1.000000   0.000000
     3  H    0.989285   0.843459   0.000000
     4  H    0.989285   0.843459   1.519469   0.000000
 Symmetry turned off by external request.
 Stoichiometry    H2O
 Framework group  C2V[C2(O),SGV(H2)]
 Deg. of freedom     2
 Full point group                 C2V     NOp   4
 Rotational constants (GHZ):    703.1925772    434.3884453    268.5160216
 Standard basis: STO-3G (5D, 7F)
 Integral buffers will be    131072 words long.
 Raffenetti 1 integral format.
 Two-electron integral symmetry is turned off.
     7 basis functions,    21 primitive gaussians,     7 cartesian basis functions
     5 alpha electrons        5 beta electrons
       nuclear repulsion energy         8.9068028977 Hartrees.
 NAtoms=    3 NActive=    3 NUniq=    3 SFac= 1.00D+00 NAtFMM=   50 NAOKFM=F Big=F
 One-electron integrals computed using PRISM.
 NBasis=     7 RedAO= T  NBF=     7
 NBsUse=     7 1.00D-06 NBFU=     7
 Initial guess read from the read-write file.
 B after Tr=     0.000000    0.000000    0.000000
         Rot=    1.000000    0.000000    0.000000    0.000000 Ang=   0.00 deg.
 Requested convergence on RMS density matrix=1.00D-08 within 128 cycles.
 Requested convergence on MAX density matrix=1.00D-06.
 Requested convergence on             energy=1.00D-06.
 No special actions if energy rises.
 Keep R1 ints in memory in canonical form, NReq=820147.
 SCF Done:  E(RHF) =  -74.9658967781     A.U. after    6 cycles
             Convg  =    0.8483D-10             -V/T =  2.0060
 Calling FoFJK, ICntrl=      2127 FMM=F ISym2X=0 I1Cent= 0 IOpClX= 0 NMat=1 NMatS=1 NMatT=0.
 -------------------------------------------------------------------
 Center     Atomic                   Forces (Hartrees/Bohr)
 Number     Number              X              Y              Z
 -------------------------------------------------------------------
      1        8           0.000000000    0.000000000   -0.001248555
      2        1          -0.000600006    0.000000000    0.000624278
      3        1           0.000600006    0.000000000    0.000624278
 -------------------------------------------------------------------
 Cartesian Forces:  Max     0.001248555 RMS     0.000582938
 -----------------------------------------------------------------------------------------------
                       Internal Coordinate Forces (Hartree/Bohr or radian)
  Cent   Atom   N1       Length/X         N2         Alpha/Y        N3         Beta/Z          J
 -----------------------------------------------------------------------------------------------
      1  O 
         X        1   0.000000(     1)
      2  H        1  -0.000061(     2)      2  -0.001615(     4)
      3  H        1  -0.000061(     3)      2  -0.001615(     5)      3   0.000000(     6)     0
 -----------------------------------------------------------------------------------------------
 Internal  Forces:  Max     0.001614710 RMS     0.000932917

 GradGradGradGradGradGradGradGradGradGradGradGradGradGradGradGradGradGrad
 Berny optimization.
 Search for a local minimum.
 Step number   3 out of a maximum of   20
 All quantities printed in internal units (Hartrees-Bohrs-Radians)
 Update second derivatives using D2CorN and points    1    2    3
 DE= -2.84D-05 DEPred=-4.31D-05 R= 6.58D-01
 SS=  1.41D+00  RLast= 1.01D-02 DXNew= 5.0454D-01 3.0436D-02
 Trust test= 6.58D-01 RLast= 1.01D-02 DXMaxT set to 3.00D-01
 The second derivative matrix:
                          R1        R2         A
           R1           0.55571
           R2           0.07883   0.55571
           A            0.16077   0.16077   0.94356
 ITU=  1  1  0
     Eigenvalues ---    0.47688   0.51415   1.06394
 RFO step:  Lambda=-4.61716537D-06 EMin= 4.76883293D-01
 Quartic linear search produced a step of -0.22843.
 Variable       Old X    -DE/DX   Delta X   Delta X   Delta X     New X
                                 (Linear)    (Quad)   (Total)
    R1        1.86948  -0.00006  -0.00116   0.00168   0.00052   1.87000
    R2        1.86948  -0.00006  -0.00116   0.00168   0.00052   1.87000
    A         0.87565  -0.00323  -0.00163  -0.00176  -0.00339   0.87226
         Item               Value     Threshold  Converged?
 Maximum Force            0.003229     0.000015     NO 
 RMS     Force            0.001865     0.000010     NO 
 Maximum Displacement     0.003393     0.000060     NO 
 RMS     Displacement     0.002005     0.000040     NO 
 Predicted change in Energy=-5.859428D-06
 GradGradGradGradGradGradGradGradGradGradGradGradGradGradGradGradGradGrad

 ---------------------------------------------------------------------------------------------------
                            Z-MATRIX (ANGSTROMS AND DEGREES)
   CD    Cent   Atom    N1       Length/X        N2       Alpha/Y        N3        Beta/Z          J
 ---------------------------------------------------------------------------------------------------
      1      1  O 
      2         X        1   1.000000(     1)
      3      2  H        1   0.989562(     2)      2   49.977(     4)
      4      3  H        1   0.989562(     3)      2   49.977(     5)      3  180.000(     6)      0
 ---------------------------------------------------------------------------------------------------
                         Z-Matrix orientation:                         
 ---------------------------------------------------------------------
 Center     Atomic      Atomic             Coordinates (Angstroms)
 Number     Number       Type             X           Y           Z
 ---------------------------------------------------------------------
      1          8           0        0.000000    0.000000    0.000000
      2         -1           0        0.000000    0.000000    1.000000
      3          1           0        0.757792    0.000000    0.636384
      4          1           0       -0.757792    0.000000    0.636384
 ---------------------------------------------------------------------
                    Distance matrix (angstroms):
                    1          2          3          4
     1  O    0.000000
     2  X    1.000000   0.000000
     3  H    0.989562   0.840515   0.000000
     4  H    0.989562   0.840515   1.515584   0.000000
 Symmetry turned off by external request.
 Stoichiometry    H2O
 Framework group  C2V[C2(O),SGV(H2)]
 Deg. of freedom     2
 Full point group                 C2V     NOp   4
 Rotational constants (GHZ):    697.1229167    436.6184727    268.4710517
 Standard basis: STO-3G (5D, 7F)
 Integral buffers will be    131072 words long.
 Raffenetti 1 integral format.
 Two-electron integral symmetry is turned off.
     7 basis functions,    21 primitive gaussians,     7 cartesian basis functions
     5 alpha electrons        5 beta electrons
       nuclear repulsion energy         8.9053022427 Hartrees.
 NAtoms=    3 NActive=    3 NUniq=    3 SFac= 1.00D+00 NAtFMM=   50 NAOKFM=F Big=F
 One-electron integrals computed using PRISM.
 NBasis=     7 RedAO= T  NBF=     7
 NBsUse=     7 1.00D-06 NBFU=     7
 Initial guess read from the read-write file.
 B after Tr=     0.000000    0.000000    0.000000
         Rot=    1.000000    0.000000    0.000000    0.000000 Ang=   0.00 deg.
 Requested convergence on RMS density matrix=1.00D-08 within 128 cycles.
 Requested convergence on MAX density matrix=1.00D-06.
 Requested convergence on             energy=1.00D-06.
 No special actions if energy rises.
 Keep R1 ints in memory in canonical form, NReq=820147.
 SCF Done:  E(RHF) =  -74.9659009514     A.U. after    6 cycles
             Convg  =    0.4979D-10             -V/T =  2.0060
 Calling FoFJK, ICntrl=      2127 FMM=F ISym2X=0 I1Cent= 0 IOpClX= 0 NMat=1 NMatS=1 NMatT=0.
 -------------------------------------------------------------------
 Center     Atomic                   Forces (Hartrees/Bohr)
 Number     Number              X              Y              Z
 -------------------------------------------------------------------
      1        8           0.000000000    0.000000000    0.000461791
      2        1           0.000021994    0.000000000   -0.000230895
      3        1          -0.000021994    0.000000000   -0.000230895
 -------------------------------------------------------------------
 Cartesian Forces:  Max     0.000461791 RMS     0.000188810
 -----------------------------------------------------------------------------------------------
                       Internal Coordinate Forces (Hartree/Bohr or radian)
  Cent   Atom   N1       Length/X         N2         Alpha/Y        N3         Beta/Z          J
 -----------------------------------------------------------------------------------------------
      1  O 
         X        1   0.000000(     1)
      2  H        1  -0.000132(     2)      2   0.000357(     4)
      3  H        1  -0.000132(     3)      2   0.000357(     5)      3   0.000000(     6)     0
 -----------------------------------------------------------------------------------------------
 Internal  Forces:  Max     0.000357097 RMS     0.000219734

 GradGradGradGradGradGradGradGradGradGradGradGradGradGradGradGradGradGrad
 Berny optimization.
 Search for a local minimum.
 Step number   4 out of a maximum of   20
 All quantities printed in internal units (Hartrees-Bohrs-Radians)
 Update second derivatives using D2CorN and points    1    2    3    4
 DE= -4.17D-06 DEPred=-5.86D-06 R= 7.12D-01
 SS=  1.41D+00  RLast= 3.47D-03 DXNew= 5.0454D-01 1.0419D-02
 Trust test= 7.12D-01 RLast= 3.47D-03 DXMaxT set to 3.00D-01
 The second derivative matrix:
                          R1        R2         A
           R1           0.54828
           R2           0.07139   0.54828
           A            0.08739   0.08739   1.19298
 ITU=  1  1  1  0
     Eigenvalues ---    0.47688   0.59417   1.21848
 RFO step:  Lambda=-4.49196160D-08 EMin= 4.76883293D-01
 Quartic linear search produced a step of -0.18990.
 Variable       Old X    -DE/DX   Delta X   Delta X   Delta X     New X
                                 (Linear)    (Quad)   (Total)
    R1        1.87000  -0.00013  -0.00010  -0.00019  -0.00029   1.86971
    R2        1.87000  -0.00013  -0.00010  -0.00019  -0.00029   1.86971
    A         0.87226   0.00071   0.00064   0.00000   0.00064   0.87290
         Item               Value     Threshold  Converged?
 Maximum Force            0.000714     0.000015     NO 
 RMS     Force            0.000426     0.000010     NO 
 Maximum Displacement     0.000642     0.000060     NO 
 RMS     Displacement     0.000439     0.000040     NO 
 Predicted change in Energy=-2.694293D-07
 GradGradGradGradGradGradGradGradGradGradGradGradGradGradGradGradGradGrad

 ---------------------------------------------------------------------------------------------------
                            Z-MATRIX (ANGSTROMS AND DEGREES)
   CD    Cent   Atom    N1       Length/X        N2       Alpha/Y        N3        Beta/Z          J
 ---------------------------------------------------------------------------------------------------
      1      1  O 
      2         X        1   1.000000(     1)
      3      2  H        1   0.989409(     2)      2   50.014(     4)
      4      3  H        1   0.989409(     3)      2   50.014(     5)      3  180.000(     6)      0
 ---------------------------------------------------------------------------------------------------
                         Z-Matrix orientation:                         
 ---------------------------------------------------------------------
 Center     Atomic      Atomic             Coordinates (Angstroms)
 Number     Number       Type             X           Y           Z
 ---------------------------------------------------------------------
      1          8           0        0.000000    0.000000    0.000000
      2         -1           0        0.000000    0.000000    1.000000
      3          1           0        0.758083    0.000000    0.635799
      4          1           0       -0.758083    0.000000    0.635799
 ---------------------------------------------------------------------
                    Distance matrix (angstroms):
                    1          2          3          4
     1  O    0.000000
     2  X    1.000000   0.000000
     3  H    0.989409   0.841030   0.000000
     4  H    0.989409   0.841030   1.516166   0.000000
 Symmetry turned off by external request.
 Stoichiometry    H2O
 Framework group  C2V[C2(O),SGV(H2)]
 Deg. of freedom     2
 Full point group                 C2V     NOp   4
 Rotational constants (GHZ):    698.4060175    436.2833736    268.5342225
 Standard basis: STO-3G (5D, 7F)
 Integral buffers will be    131072 words long.
 Raffenetti 1 integral format.
 Two-electron integral symmetry is turned off.
     7 basis functions,    21 primitive gaussians,     7 cartesian basis functions
     5 alpha electrons        5 beta electrons
       nuclear repulsion energy         8.9064921254 Hartrees.
 NAtoms=    3 NActive=    3 NUniq=    3 SFac= 1.00D+00 NAtFMM=   50 NAOKFM=F Big=F
 One-electron integrals computed using PRISM.
 NBasis=     7 RedAO= T  NBF=     7
 NBsUse=     7 1.00D-06 NBFU=     7
 Initial guess read from the read-write file.
 B after Tr=     0.000000    0.000000    0.000000
         Rot=    1.000000    0.000000    0.000000    0.000000 Ang=   0.00 deg.
 Requested convergence on RMS density matrix=1.00D-08 within 128 cycles.
 Requested convergence on MAX density matrix=1.00D-06.
 Requested convergence on             energy=1.00D-06.
 No special actions if energy rises.
 Keep R1 ints in memory in canonical form, NReq=820147.
 SCF Done:  E(RHF) =  -74.9659012171     A.U. after    6 cycles
             Convg  =    0.2172D-11             -V/T =  2.0060
 Calling FoFJK, ICntrl=      2127 FMM=F ISym2X=0 I1Cent= 0 IOpClX= 0 NMat=1 NMatS=1 NMatT=0.
 -------------------------------------------------------------------
 Center     Atomic                   Forces (Hartrees/Bohr)
 Number     Number              X              Y              Z
 -------------------------------------------------------------------
      1        8           0.000000000    0.000000000   -0.000002245
      2        1          -0.000000617    0.000000000    0.000001122
      3        1           0.000000617    0.000000000    0.000001122
 -------------------------------------------------------------------
 Cartesian Forces:  Max     0.000002245 RMS     0.000000962
 -----------------------------------------------------------------------------------------------
                       Internal Coordinate Forces (Hartree/Bohr or radian)
  Cent   Atom   N1       Length/X         N2         Alpha/Y        N3         Beta/Z          J
 -----------------------------------------------------------------------------------------------
      1  O 
         X        1   0.000000(     1)
      2  H        1   0.000000(     2)      2  -0.000002(     4)
      3  H        1   0.000000(     3)      2  -0.000002(     5)      3   0.000000(     6)     0
 -----------------------------------------------------------------------------------------------
 Internal  Forces:  Max     0.000002350 RMS     0.000001364

 GradGradGradGradGradGradGradGradGradGradGradGradGradGradGradGradGradGrad
 Berny optimization.
 Search for a local minimum.
 Step number   5 out of a maximum of   20
 All quantities printed in internal units (Hartrees-Bohrs-Radians)
 Update second derivatives using D2CorN and points    2    3    4    5
 DE= -2.66D-07 DEPred=-2.69D-07 R= 9.86D-01
 Trust test= 9.86D-01 RLast= 7.61D-04 DXMaxT set to 3.00D-01
 The second derivative matrix:
                          R1        R2         A
           R1           0.55047
           R2           0.07358   0.55047
           A            0.07659   0.07659   1.18992
 ITU=  0  1  1  1
     Eigenvalues ---    0.47688   0.60403   1.20995
 RFO step:  Lambda= 0.00000000D+00 EMin= 4.76883293D-01
 Quartic linear search produced a step of -0.00588.
 Variable       Old X    -DE/DX   Delta X   Delta X   Delta X     New X
                                 (Linear)    (Quad)   (Total)
    R1        1.86971   0.00000   0.00000   0.00000   0.00000   1.86971
    R2        1.86971   0.00000   0.00000   0.00000   0.00000   1.86971
    A         0.87290   0.00000   0.00000   0.00000   0.00000   0.87290
         Item               Value     Threshold  Converged?
 Maximum Force            0.000005     0.000015     YES
 RMS     Force            0.000003     0.000010     YES
 Maximum Displacement     0.000004     0.000060     YES
 RMS     Displacement     0.000002     0.000040     YES
 Predicted change in Energy=-9.774467D-12
 Optimization completed.
    -- Stationary point found.
                       ----------------------------
                       !   Optimized Parameters   !
                       ! (Angstroms and Degrees)  !
 ----------------------                            ----------------------
 !      Name          Value   Derivative information (Atomic Units)     !
 ------------------------------------------------------------------------
 !       R1          0.9894   -DE/DX =    0.0                           !
 !       R2          0.9894   -DE/DX =    0.0                           !
 !        A         50.0137   -DE/DX =    0.0                           !
 ------------------------------------------------------------------------
 GradGradGradGradGradGradGradGradGradGradGradGradGradGradGradGradGradGrad

 ---------------------------------------------------------------------------------------------------
                            Z-MATRIX (ANGSTROMS AND DEGREES)
   CD    Cent   Atom    N1       Length/X        N2       Alpha/Y        N3        Beta/Z          J
 ---------------------------------------------------------------------------------------------------
      1      1  O 
      2         X        1   1.000000(     1)
      3      2  H        1   0.989409(     2)      2   50.014(     4)
      4      3  H        1   0.989409(     3)      2   50.014(     5)      3  180.000(     6)      0
 ---------------------------------------------------------------------------------------------------
                         Z-Matrix orientation:                         
 ---------------------------------------------------------------------
 Center     Atomic      Atomic             Coordinates (Angstroms)
 Number     Number       Type             X           Y           Z
 ---------------------------------------------------------------------
      1          8           0        0.000000    0.000000    0.000000
      2         -1           0        0.000000    0.000000    1.000000
      3          1           0        0.758083    0.000000    0.635799
      4          1           0       -0.758083    0.000000    0.635799
 ---------------------------------------------------------------------
                    Distance matrix (angstroms):
                    1          2          3          4
     1  O    0.000000
     2  X    1.000000   0.000000
     3  H    0.989409   0.841030   0.000000
     4  H    0.989409   0.841030   1.516166   0.000000
 Symmetry turned off by external request.
 Stoichiometry    H2O
 Framework group  C2V[C2(O),SGV(H2)]
 Deg. of freedom     2
 Full point group                 C2V     NOp   4
 Rotational constants (GHZ):    698.4060175    436.2833736    268.5342225

 **********************************************************************

            Population analysis using the SCF density.

 **********************************************************************

 Alpha  occ. eigenvalues --  -20.25158  -1.25755  -0.59386  -0.45973  -0.39262
 Alpha virt. eigenvalues --    0.58179   0.69268
          Condensed to atoms (all electrons):
              1          2          3
     1  O    7.822767   0.253882   0.253882
     2  H    0.253882   0.626252  -0.045400
     3  H    0.253882  -0.045400   0.626252
 Mulliken atomic charges:
              1
     1  O   -0.330531
     2  H    0.165265
     3  H    0.165265
 Sum of Mulliken atomic charges =   0.00000
 Mulliken charges with hydrogens summed into heavy atoms:
              1
     1  O    0.000000
 Sum of Mulliken charges with hydrogens summed into heavy atoms =   0.00000
 Electronic spatial extent (au):  <R**2>=             18.5228
 Charge=              0.0000 electrons
 Dipole moment (field-independent basis, Debye):
    X=              0.0000    Y=              0.0000    Z=              1.7092  Tot=              1.7092
 Quadrupole moment (field-independent basis, Debye-Ang):
   XX=             -4.4856   YY=             -6.1257   ZZ=             -4.8986
   XY=              0.0000   XZ=              0.0000   YZ=              0.0000
 Traceless Quadrupole moment (field-independent basis, Debye-Ang):
   XX=              0.6844   YY=             -0.9557   ZZ=              0.2714
   XY=              0.0000   XZ=              0.0000   YZ=              0.0000
 Octapole moment (field-independent basis, Debye-Ang**2):
  XXX=              0.0000  YYY=              0.0000  ZZZ=             -1.7772  XYY=              0.0000
  XXY=              0.0000  XXZ=             -0.0389  XZZ=              0.0000  YZZ=              0.0000
  YYZ=             -0.7982  XYZ=              0.0000
 Hexadecapole moment (field-independent basis, Debye-Ang**3):
 XXXX=             -6.7335 YYYY=             -3.2653 ZZZZ=             -5.6343 XXXY=              0.0000
 XXXZ=              0.0000 YYYX=              0.0000 YYYZ=              0.0000 ZZZX=              0.0000
 ZZZY=              0.0000 XXYY=             -1.8084 XXZZ=             -1.6764 YYZZ=             -1.5637
 XXYZ=              0.0000 YYXZ=              0.0000 ZZXY=              0.0000
 N-N= 8.906492125427D+00 E-N=-1.963527431435D+02  KE= 7.451861019772D+01
 1\1\GINC-KRUCK\POpt\RHF\STO-3G\H2O1\LAUVERGN\07-Apr-2019\1\\#hf sto-3g
  opt=(tight,z-matrix) freq nosym\\\0,1\O\X,1,1.\H,1,R1,2,A\H,1,R2,2,A,
 3,180.,0\\R1=0.98940885\R2=0.98940885\A=50.01367286\\Version=EM64M-G09
 RevB.01\HF=-74.9659012\RMSD=2.172e-12\RMSF=9.616e-07\Dipole=0.,0.,0.67
 24533\Quadrupole=0.5088053,-0.710564,0.2017587,0.,0.,0.\PG=C02V [C2(O1
 ),SGV(H2)]\\@


 Boundary, n.  In political geography, an imaginary
 line between two nations, separating the imaginary
 rights of one from the imaginary rights of another.
                               -- Ambrose Bierce
 Job cpu time:  0 days  0 hours  0 minutes  3.0 seconds.
 File lengths (MBytes):  RWF=      5 Int=      0 D2E=      0 Chk=      1 Scr=      1
 Normal termination of Gaussian 09 at Sun Apr  7 21:37:19 2019.
 Link1:  Proceeding to internal job step number  2.
 ---------------------------------------------------------------
 #N Geom=AllCheck Guess=TCheck SCRF=Check GenChk RHF/STO-3G Freq
 ---------------------------------------------------------------
 1/7=10,10=4,29=7,30=1,38=1,40=1/1,3;
 2/12=2,15=1,40=1/2;
 3/6=3,11=1,14=-4,16=1,25=1,30=1,70=2,71=2,116=1/1,2,3;
 4/5=101/1;
 5/5=2,98=1/2;
 8/6=4,10=90,11=11/1;
 10/13=10,15=4,31=1/2;
 11/6=3,8=1,9=11,15=111,16=1,31=1/1,2,10;
 10/6=1,31=1/2;
 6/7=2,8=2,9=2,10=2,18=1,28=1/1;
 7/8=1,10=1,25=1,30=1/1,2,3,16;
 1/7=10,10=4,30=1/3;
 99//99;

 

 Z-Matrix taken from the checkpoint file:
 h2o_freq.chk
 Charge =  0 Multiplicity = 1
 O
 X,1,1.
 H,1,R1,2,A
 H,1,R2,2,A,3,180.,0
      Variables:
 R1=0.98940885
 R2=0.98940885
 A=50.01367286
 Recover connectivity data from disk.

 GradGradGradGradGradGradGradGradGradGradGradGradGradGradGradGradGradGrad
 Berny optimization.
 Initialization pass.
                       ----------------------------
                       !    Initial Parameters    !
                       ! (Angstroms and Degrees)  !
 ----------------------                            ----------------------
 !      Name          Value   Derivative information (Atomic Units)     !
 ------------------------------------------------------------------------
 !       R1          0.9894   calculate D2E/DX2 analytically            !
 !       R2          0.9894   calculate D2E/DX2 analytically            !
 !        A         50.0137   calculate D2E/DX2 analytically            !
 ------------------------------------------------------------------------
 Trust Radius=3.00D-01 FncErr=1.00D-07 GrdErr=1.00D-07
 Number of steps in this run=      2 maximum allowed number of steps=      2.
 GradGradGradGradGradGradGradGradGradGradGradGradGradGradGradGradGradGrad

                          Input orientation:                          
 ---------------------------------------------------------------------
 Center     Atomic      Atomic             Coordinates (Angstroms)
 Number     Number       Type             X           Y           Z
 ---------------------------------------------------------------------
      1          8           0        0.000000    0.000000    0.000000
      2          1           0        0.758083    0.000000    0.635799
      3          1           0       -0.758083    0.000000    0.635799
 ---------------------------------------------------------------------
                    Distance matrix (angstroms):
                    1          2          3
     1  O    0.000000
     2  H    0.989409   0.000000
     3  H    0.989409   1.516166   0.000000
 Symmetry turned off by external request.
 Stoichiometry    H2O
 Framework group  C2V[C2(O),SGV(H2)]
 Deg. of freedom     2
 Full point group                 C2V     NOp   4
 Rotational constants (GHZ):    698.4060175    436.2833736    268.5342225
 Standard basis: STO-3G (5D, 7F)
 Integral buffers will be    131072 words long.
 Raffenetti 1 integral format.
 Two-electron integral symmetry is turned off.
     7 basis functions,    21 primitive gaussians,     7 cartesian basis functions
     5 alpha electrons        5 beta electrons
       nuclear repulsion energy         8.9064921254 Hartrees.
 NAtoms=    3 NActive=    3 NUniq=    3 SFac= 1.00D+00 NAtFMM=   50 NAOKFM=F Big=F
 One-electron integrals computed using PRISM.
 NBasis=     7 RedAO= T  NBF=     7
 NBsUse=     7 1.00D-06 NBFU=     7
 Initial guess read from the checkpoint file:  h2o_freq.chk
 B after Tr=     0.000000    0.000000    0.000000
         Rot=    1.000000    0.000000    0.000000    0.000000 Ang=   0.00 deg.
 Requested convergence on RMS density matrix=1.00D-08 within 128 cycles.
 Requested convergence on MAX density matrix=1.00D-06.
 Requested convergence on             energy=1.00D-06.
 No special actions if energy rises.
 Keep R1 ints in memory in canonical form, NReq=820147.
 SCF Done:  E(RHF) =  -74.9659012171     A.U. after    1 cycles
             Convg  =    0.9835D-15             -V/T =  2.0060
 Range of M.O.s used for correlation:     1     7
 NBasis=     7 NAE=     5 NBE=     5 NFC=     0 NFV=     0
 NROrb=      7 NOA=     5 NOB=     5 NVA=     2 NVB=     2
          Differentiating once with respect to electric field.
                with respect to dipole field.
          Electric field/nuclear overlap derivatives assumed to be zero.
          Keep R1 ints in memory in canonical form, NReq=800739.
          There are     3 degrees of freedom in the 1st order CPHF.  IDoFFX=0.
      3 vectors produced by pass  0 Test12= 3.33D-16 3.33D-08 XBig12= 8.42D-01 6.90D-01.
 AX will form     3 AO Fock derivatives at one time.
      2 vectors produced by pass  1 Test12= 3.33D-16 3.33D-08 XBig12= 8.36D-03 7.20D-02.
      2 vectors produced by pass  2 Test12= 3.33D-16 3.33D-08 XBig12= 1.07D-04 6.31D-03.
      2 vectors produced by pass  3 Test12= 3.33D-16 3.33D-08 XBig12= 6.37D-09 7.70D-05.
 Inverted reduced A of dimension     9 with in-core refinement.
 End of Minotr Frequency-dependent properties file   721 does not exist.
 End of Minotr Frequency-dependent properties file   722 does not exist.
 Symmetrizing basis deriv contribution to polar:
 IMax=3 JMax=2 DiffMx= 0.00D+00
 G2DrvN: will do     4 centers at a time, making    1 passes doing MaxLOS=1.
 Calling FoFCou, ICntrl=  3107 FMM=F I1Cent=   0 AccDes= 0.00D+00.
 FoFDir/FoFCou used for L=0 through L=1.
 End of G2Drv Frequency-dependent properties file   721 does not exist.
 End of G2Drv Frequency-dependent properties file   722 does not exist.
          IDoAtm=111
          Differentiating once with respect to electric field.
                with respect to dipole field.
          Differentiating once with respect to nuclear coordinates.
          Keep R1 ints in memory in canonical form, NReq=800805.
          There are    12 degrees of freedom in the 1st order CPHF.  IDoFFX=5.
 Will reuse    3 saved solutions.
      6 vectors produced by pass  0 Test12= 8.33D-17 8.33D-09 XBig12= 2.68D-02 1.64D-01.
 AX will form     6 AO Fock derivatives at one time.
      4 vectors produced by pass  1 Test12= 8.33D-17 8.33D-09 XBig12= 1.34D-04 8.51D-03.
 Inverted reduced A of dimension    10 with in-core refinement.
 Isotropic polarizability for W=    0.000000        2.70 Bohr**3.
 End of Minotr Frequency-dependent properties file   721 does not exist.
 End of Minotr Frequency-dependent properties file   722 does not exist.

 **********************************************************************

            Population analysis using the SCF density.

 **********************************************************************

 Alpha  occ. eigenvalues --  -20.25158  -1.25755  -0.59386  -0.45973  -0.39262
 Alpha virt. eigenvalues --    0.58179   0.69268
          Condensed to atoms (all electrons):
              1          2          3
     1  O    7.822767   0.253882   0.253882
     2  H    0.253882   0.626252  -0.045400
     3  H    0.253882  -0.045400   0.626252
 Mulliken atomic charges:
              1
     1  O   -0.330531
     2  H    0.165265
     3  H    0.165265
 Sum of Mulliken atomic charges =   0.00000
 Mulliken charges with hydrogens summed into heavy atoms:
              1
     1  O    0.000000
 Sum of Mulliken charges with hydrogens summed into heavy atoms =   0.00000
 APT atomic charges:
              1
     1  O   -0.169102
     2  H    0.084551
     3  H    0.084551
 Sum of APT charges=   0.00000
 APT Atomic charges with hydrogens summed into heavy atoms:
              1
     1  O    0.000000
     2  H    0.000000
     3  H    0.000000
 Sum of APT charges=   0.00000
 Electronic spatial extent (au):  <R**2>=             18.5228
 Charge=              0.0000 electrons
 Dipole moment (field-independent basis, Debye):
    X=              0.0000    Y=              0.0000    Z=              1.7092  Tot=              1.7092
 Quadrupole moment (field-independent basis, Debye-Ang):
   XX=             -4.4856   YY=             -6.1257   ZZ=             -4.8986
   XY=              0.0000   XZ=              0.0000   YZ=              0.0000
 Traceless Quadrupole moment (field-independent basis, Debye-Ang):
   XX=              0.6844   YY=             -0.9557   ZZ=              0.2714
   XY=              0.0000   XZ=              0.0000   YZ=              0.0000
 Octapole moment (field-independent basis, Debye-Ang**2):
  XXX=              0.0000  YYY=              0.0000  ZZZ=             -1.7772  XYY=              0.0000
  XXY=              0.0000  XXZ=             -0.0389  XZZ=              0.0000  YZZ=              0.0000
  YYZ=             -0.7982  XYZ=              0.0000
 Hexadecapole moment (field-independent basis, Debye-Ang**3):
 XXXX=             -6.7335 YYYY=             -3.2653 ZZZZ=             -5.6343 XXXY=              0.0000
 XXXZ=              0.0000 YYYX=              0.0000 YYYZ=              0.0000 ZZZX=              0.0000
 ZZZY=              0.0000 XXYY=             -1.8084 XXZZ=             -1.6764 YYZZ=             -1.5637
 XXYZ=              0.0000 YYXZ=              0.0000 ZZXY=              0.0000
 N-N= 8.906492125427D+00 E-N=-1.963527431435D+02  KE= 7.451861019772D+01
  Exact polarizability:   5.508   0.000   0.040   0.000   0.000   2.566
 Approx polarizability:   3.938   0.000   0.020   0.000   0.000   2.607
 Calling FoFJK, ICntrl=    100127 FMM=F ISym2X=0 I1Cent= 0 IOpClX= 0 NMat=1 NMatS=1 NMatT=0.
 Full mass-weighted force constant matrix:
 Low frequencies ---   -5.2517   -1.9101   -0.0019   -0.0018   -0.0007    3.3618
 Low frequencies --- 2170.0398 4140.0038 4391.0734
 Harmonic frequencies (cm**-1), IR intensities (KM/Mole), Raman scattering
 activities (A**4/AMU), depolarization ratios for plane and unpolarized
 incident light, reduced masses (AMU), force constants (mDyne/A),
 and normal coordinates:
                     1                      2                      3
                     A                      A                      A
 Frequencies --  2170.0398              4140.0038              4391.0734
 Red. masses --     1.0785                 1.0491                 1.0774
 Frc consts  --     2.9923                10.5942                12.2392
 IR Inten    --     7.2378                44.2864                29.9713
 Raman Activ --     9.2669                47.8201                21.5548
 Depolar (P) --     0.7246                 0.1791                 0.7500
 Depolar (U) --     0.8403                 0.3038                 0.8571
  Atom  AN      X      Y      Z        X      Y      Z        X      Y      Z
     1   8     0.00   0.00   0.07     0.00   0.00  -0.05     0.07   0.00   0.00
     2   1     0.45   0.00  -0.54     0.57   0.00   0.42    -0.54   0.00  -0.45
     3   1    -0.45   0.00  -0.54    -0.57   0.00   0.42    -0.54   0.00   0.45

 -------------------
 - Thermochemistry -
 -------------------
 Temperature   298.150 Kelvin.  Pressure   1.00000 Atm.
 Atom     1 has atomic number  8 and mass  15.99491
 Atom     2 has atomic number  1 and mass   1.00783
 Atom     3 has atomic number  1 and mass   1.00783
 Molecular mass:    18.01056 amu.
 Principal axes and moments of inertia in atomic units:
                           1         2         3
     Eigenvalues --     2.58409   4.13663   6.72071
           X            1.00000   0.00000   0.00000
           Y            0.00000   0.00000   1.00000
           Z            0.00000   1.00000   0.00000
 This molecule is an asymmetric top.
 Rotational symmetry number  2.
 Rotational temperatures (Kelvin)     33.51816    20.93827    12.88759
 Rotational constants (GHZ):         698.40602   436.28337   268.53422
 Zero-point vibrational energy      64006.9 (Joules/Mol)
                                   15.29801 (Kcal/Mol)
 Vibrational temperatures:   3122.20  5956.53  6317.77
          (Kelvin)
 
 Zero-point correction=                           0.024379 (Hartree/Particle)
 Thermal correction to Energy=                    0.027212
 Thermal correction to Enthalpy=                  0.028156
 Thermal correction to Gibbs Free Energy=         0.006641
 Sum of electronic and zero-point Energies=            -74.941522
 Sum of electronic and thermal Energies=               -74.938689
 Sum of electronic and thermal Enthalpies=             -74.937745
 Sum of electronic and thermal Free Energies=          -74.959260
 
                     E (Thermal)             CV                S
                      KCal/Mol        Cal/Mol-Kelvin    Cal/Mol-Kelvin
 Total                   17.076              5.968             45.282
 Electronic               0.000              0.000              0.000
 Translational            0.889              2.981             34.608
 Rotational               0.889              2.981             10.673
 Vibrational             15.298              0.006              0.001
                       Q            Log10(Q)             Ln(Q)
 Total Bot       0.881556D-03         -3.054750         -7.033822
 Total V=0       0.144132D+09          8.158759         18.786237
 Vib (Bot)       0.611650D-11        -11.213497        -25.820031
 Vib (V=0)       0.100003D+01          0.000012          0.000028
 Electronic      0.100000D+01          0.000000          0.000000
 Translational   0.300432D+07          6.477746         14.915562
 Rotational      0.479734D+02          1.681001          3.870647
 -------------------------------------------------------------------
 Center     Atomic                   Forces (Hartrees/Bohr)
 Number     Number              X              Y              Z
 -------------------------------------------------------------------
      1        8           0.000000000    0.000000000   -0.000002245
      2        1          -0.000000617    0.000000000    0.000001122
      3        1           0.000000617    0.000000000    0.000001122
 -------------------------------------------------------------------
 Cartesian Forces:  Max     0.000002245 RMS     0.000000962
 -----------------------------------------------------------------------------------------------
                       Internal Coordinate Forces (Hartree/Bohr or radian)
  Cent   Atom   N1       Length/X         N2         Alpha/Y        N3         Beta/Z          J
 -----------------------------------------------------------------------------------------------
      1  O 
         X        1   0.000000(     1)
      2  H        1   0.000000(     2)      2  -0.000002(     4)
      3  H        1   0.000000(     3)      2  -0.000002(     5)      3   0.000000(     6)     0
 -----------------------------------------------------------------------------------------------
 Internal  Forces:  Max     0.000002350 RMS     0.000001364

 GradGradGradGradGradGradGradGradGradGradGradGradGradGradGradGradGradGrad
 Berny optimization.
 Search for a local minimum.
 Step number   1 out of a maximum of    2
 All quantities printed in internal units (Hartrees-Bohrs-Radians)
 Second derivative matrix not updated -- analytic derivatives used.
 The second derivative matrix:
                          R1        R2         A
           R1           0.65409
           R2          -0.03064   0.65409
           A            0.07540   0.07540   1.18753
 ITU=  0
     Eigenvalues ---    0.60396   0.68473   1.20702
 Angle between quadratic step and forces=  12.92 degrees.
 Linear search not attempted -- first point.
 Variable       Old X    -DE/DX   Delta X   Delta X   Delta X     New X
                                 (Linear)    (Quad)   (Total)
    R1        1.86971   0.00000   0.00000   0.00000   0.00000   1.86971
    R2        1.86971   0.00000   0.00000   0.00000   0.00000   1.86971
    A         0.87290   0.00000   0.00000   0.00000   0.00000   0.87290
         Item               Value     Threshold  Converged?
 Maximum Force            0.000005     0.000015     YES
 RMS     Force            0.000003     0.000010     YES
 Maximum Displacement     0.000004     0.000060     YES
 RMS     Displacement     0.000002     0.000040     YES
 Predicted change in Energy=-9.786041D-12
 Optimization completed.
    -- Stationary point found.
                       ----------------------------
                       !   Optimized Parameters   !
                       ! (Angstroms and Degrees)  !
 ----------------------                            ----------------------
 !      Name          Value   Derivative information (Atomic Units)     !
 ------------------------------------------------------------------------
 !       R1          0.9894   -DE/DX =    0.0                           !
 !       R2          0.9894   -DE/DX =    0.0                           !
 !        A         50.0137   -DE/DX =    0.0                           !
 ------------------------------------------------------------------------
 GradGradGradGradGradGradGradGradGradGradGradGradGradGradGradGradGradGrad

 1\1\GINC-KRUCK\Freq\RHF\STO-3G\H2O1\LAUVERGN\07-Apr-2019\1\\#N Geom=Al
 lCheck Guess=TCheck SCRF=Check GenChk RHF/STO-3G Freq\\\0,1\O\X,1,1.\H
 ,1,R1,2,A\H,1,R2,2,A,3,180.,0\\R1=0.98940885\R2=0.98940885\A=50.013672
 86\\Version=EM64M-G09RevB.01\HF=-74.9659012\RMSD=9.835e-16\RMSF=9.616e
 -07\ZeroPoint=0.0243789\Thermal=0.0272118\Dipole=0.,0.,0.6724533\Dipol
 eDeriv=-0.03115,0.,0.,0.,-0.5596848,0.,0.,0.,0.0835291,0.015575,0.,-0.
 1570625,0.,0.2798424,0.,-0.2216392,0.,-0.0417646,0.015575,0.,0.1570625
 ,0.,0.2798424,0.,0.2216392,0.,-0.0417646\Polar=5.5080719,0.,0.0400611,
 0.,0.,2.5658848\PolarDeriv=0.,0.,0.,-2.8560616,0.,0.,0.,0.,0.,0.,-2.10
 22502,0.,-3.1402957,0.,0.018171,0.,0.,-4.8695584,4.4430701,0.,0.031265
 3,1.4280308,0.,0.2086485,0.,1.9084633,0.,0.,1.0511251,0.,1.5701479,0.,
 -0.0090855,2.2245714,0.,2.4347792,-4.4430701,0.,-0.0312653,1.4280308,0
 .,-0.2086485,0.,-1.9084633,0.,0.,1.0511251,0.,1.5701479,0.,-0.0090855,
 -2.2245714,0.,2.4347792\HyperPolar=0.,0.,0.,0.,7.0123701,0.,-0.0762421
 ,0.,0.,4.1142166\PG=C02V [C2(O1),SGV(H2)]\NImag=0\\0.80395700,0.,-0.00
 000187,0.,0.,0.63489756,-0.40197850,0.,-0.21631250,0.43891356,0.,0.000
 00093,0.,0.,-0.00000025,-0.33713736,0.,-0.31744878,0.27672493,0.,0.300
 10199,-0.40197850,0.,0.21631250,-0.03693507,0.,0.06041243,0.43891356,0
 .,0.00000093,0.,0.,-0.00000068,0.,0.,-0.00000025,0.33713736,0.,-0.3174
 4878,-0.06041243,0.,0.01734679,-0.27672493,0.,0.30010199\\0.,0.,0.0000
 0224,0.00000062,0.,-0.00000112,-0.00000062,0.,-0.00000112\\\@


 THOSE WHO ARE UNABLE TO LEARN FROM PAST MEETINGS
 ARE CONDEMNED TO REPEAT THEM.
 Job cpu time:  0 days  0 hours  0 minutes  1.1 seconds.
 File lengths (MBytes):  RWF=      5 Int=      0 D2E=      0 Chk=      1 Scr=      1
 Normal termination of Gaussian 09 at Sun Apr  7 21:37:20 2019.
