                                                                        
Freq      RHF                                                         STO-3G              
Number of atoms                            I                3
Info1-9                                    I   N=           9
           9           9           0           0           0         100
           6           1           2
Charge                                     I                0
Multiplicity                               I                1
Number of electrons                        I               10
Number of alpha electrons                  I                5
Number of beta electrons                   I                5
Number of basis functions                  I                7
Number of independent functions            I                7
Number of point charges in /Mol/           I                0
Number of translation vectors              I                0
Atomic numbers                             I   N=           3
           8           1           1
Nuclear charges                            R   N=           3
  8.00000000E+00  1.00000000E+00  1.00000000E+00
Current cartesian coordinates              R   N=           9
  0.00000000E+00  0.00000000E+00  0.00000000E+00  1.43256910E+00  0.00000000E+00
  1.20149494E+00 -1.43256910E+00  0.00000000E+00  1.20149494E+00
Force Field                                I                0
Int Atom Types                             I   N=           3
           0           0           0
MM charges                                 R   N=           3
  0.00000000E+00  0.00000000E+00  0.00000000E+00
Integer atomic weights                     I   N=           3
          16           1           1
Real atomic weights                        R   N=           3
  1.59949146E+01  1.00782504E+00  1.00782504E+00
Atom fragment info                         I   N=           3
           0           0           0
Atom residue num                           I   N=           3
           0           0           0
Nuclear spins                              I   N=           3
           0           1           1
Nuclear ZEff                               R   N=           3
 -5.60000000E+00 -1.00000000E+00 -1.00000000E+00
Nuclear QMom                               R   N=           3
  0.00000000E+00  0.00000000E+00  0.00000000E+00
Nuclear GFac                               R   N=           3
  0.00000000E+00  2.79284600E+00  2.79284600E+00
MicOpt                                     I   N=           3
          -1          -1          -1
Number of contracted shells                I                4
Number of primitive shells                 I               12
Pure/Cartesian d shells                    I                0
Pure/Cartesian f shells                    I                0
Highest angular momentum                   I                1
Largest degree of contraction              I                3
Shell types                                I   N=           4
           0          -1           0           0
Number of primitives per shell             I   N=           4
           3           3           3           3
Shell to atom map                          I   N=           4
           1           1           2           3
Primitive exponents                        R   N=          12
  1.30709321E+02  2.38088661E+01  6.44360831E+00  5.03315132E+00  1.16959612E+00
  3.80388960E-01  3.42525091E+00  6.23913730E-01  1.68855404E-01  3.42525091E+00
  6.23913730E-01  1.68855404E-01
Contraction coefficients                   R   N=          12
  1.54328967E-01  5.35328142E-01  4.44634542E-01 -9.99672292E-02  3.99512826E-01
  7.00115469E-01  1.54328967E-01  5.35328142E-01  4.44634542E-01  1.54328967E-01
  5.35328142E-01  4.44634542E-01
P(S=P) Contraction coefficients            R   N=          12
  0.00000000E+00  0.00000000E+00  0.00000000E+00  1.55916275E-01  6.07683719E-01
  3.91957393E-01  0.00000000E+00  0.00000000E+00  0.00000000E+00  0.00000000E+00
  0.00000000E+00  0.00000000E+00
Coordinates of each shell                  R   N=          12
  0.00000000E+00  0.00000000E+00  0.00000000E+00  0.00000000E+00  0.00000000E+00
  0.00000000E+00  1.43256910E+00  0.00000000E+00  1.20149494E+00 -1.43256910E+00
  0.00000000E+00  1.20149494E+00
Constraint Structure                       R   N=           9
  0.00000000E+00  0.00000000E+00  0.00000000E+00  1.43256910E+00  0.00000000E+00
  1.20149494E+00 -1.43256910E+00  0.00000000E+00  1.20149494E+00
Num ILSW                                   I              100
ILSW                                       I   N=         100
           0           0           0           0           2           0
           0           0           0           0           0          -1
           0           0           0           0           0           0
           0           0           1           0           1           0
           1           1           0           0           0           0
           0           0      100000           0          -1           0
           0           0           0           0           0           0
           0           0           0           1           0           0
           0           0           1           0           0           0
           0           0           4          40           0           0
           0           0           0           0           0           0
           0           0           0           0           0           0
           0           0           0           0           0           0
           0           0           0           0           0           0
           0           0           0           0           0           0
           0           0           0           0           0           0
           0           0           0           0
Num RLSW                                   I               40
RLSW                                       R   N=          40
  1.00000000E+00  1.00000000E+00  1.00000000E+00  1.00000000E+00  1.00000000E+00
  0.00000000E+00  0.00000000E+00  1.00000000E+00  0.00000000E+00  0.00000000E+00
  0.00000000E+00  0.00000000E+00  1.00000000E+00  0.00000000E+00  0.00000000E+00
  0.00000000E+00  0.00000000E+00  1.00000000E+00  0.00000000E+00  0.00000000E+00
  0.00000000E+00  0.00000000E+00  1.00000000E+00  0.00000000E+00  0.00000000E+00
  0.00000000E+00  0.00000000E+00  1.00000000E+00  0.00000000E+00  0.00000000E+00
  0.00000000E+00  0.00000000E+00  1.00000000E+00  0.00000000E+00  0.00000000E+00
  0.00000000E+00  0.00000000E+00  0.00000000E+00  1.00000000E+00  1.00000000E+00
MxBond                                     I                2
NBond                                      I   N=           3
           2           1           1
IBond                                      I   N=           6
           2           3           1           0           1           0
RBond                                      R   N=           6
  1.00000000E+00  1.00000000E+00  1.00000000E+00  0.00000000E+00  1.00000000E+00
  0.00000000E+00
Virial Ratio                               R      2.006002492930950E+00
SCF Energy                                 R     -7.496590121707686E+01
Total Energy                               R     -7.496590121707686E+01
RMS Force                                  R      1.933145048093551E-06
RMS Density                                R      2.287189123442499E-10
External E-field                           R   N=          35
  0.00000000E+00  0.00000000E+00  0.00000000E+00  0.00000000E+00  0.00000000E+00
  0.00000000E+00  0.00000000E+00  0.00000000E+00  0.00000000E+00  0.00000000E+00
  0.00000000E+00  0.00000000E+00  0.00000000E+00  0.00000000E+00  0.00000000E+00
  0.00000000E+00  0.00000000E+00  0.00000000E+00  0.00000000E+00  0.00000000E+00
  0.00000000E+00  0.00000000E+00  0.00000000E+00  0.00000000E+00  0.00000000E+00
  0.00000000E+00  0.00000000E+00  0.00000000E+00  0.00000000E+00  0.00000000E+00
  0.00000000E+00  0.00000000E+00  0.00000000E+00  0.00000000E+00  0.00000000E+00
IOpCl                                      I                0
IROHF                                      I                0
Alpha Orbital Energies                     R   N=           7
 -2.02515769E+01 -1.25754780E+00 -5.93853949E-01 -4.59729588E-01 -3.92616886E-01
  5.81791508E-01  6.92671514E-01
Alpha MO coefficients                      R   N=          49
  9.94216410E-01  2.58470942E-02 -1.12961982E-16 -2.88778786E-17  4.16428627E-03
 -5.58385547E-03 -5.58385547E-03 -2.33765786E-01  8.44450143E-01  1.19799819E-15
  1.15108165E-16  1.22837269E-01  1.55594260E-01  1.55594260E-01 -4.26242252E-16
  3.09770462E-15  6.12696372E-01  1.47600328E-15 -1.46488291E-15  4.49222024E-01
 -4.49222024E-01  1.04035712E-01 -5.38166105E-01  2.11793914E-15 -1.20884474E-15
  7.55876344E-01  2.95103583E-01  2.95103583E-01  3.58908167E-16 -2.06060777E-16
 -6.27102564E-16  1.00000000E+00  9.87973732E-16 -6.12245098E-16  7.03263134E-16
 -1.25819756E-01  8.20140845E-01  5.40618756E-15 -6.25124804E-16  7.63551559E-01
 -7.69162561E-01 -7.69162561E-01  7.27877236E-16 -4.38646187E-15  9.59801555E-01
 -2.74782888E-17 -3.82561320E-15 -8.14645175E-01  8.14645175E-01
Total SCF Density                          R   N=          28
  2.10787228E+00 -4.55388880E-01  2.00677374E+00 -8.66350839E-16  3.53375866E-15
  7.50793689E-01  3.55051865E-16  1.08191037E-15  5.54478581E-16  2.00000000E+00
  1.08126369E-01 -6.05898887E-01  1.70012013E-15  1.76511813E-16  1.17291077E+00
 -2.24457277E-02 -5.51349541E-02  5.50473409E-01 -5.75709824E-16  4.84302676E-01
  6.26254609E-01 -2.24457277E-02 -5.51349541E-02 -5.50473409E-01 -5.96906082E-16
  4.84302676E-01 -1.80947098E-01  6.26254609E-01
QEq coupling tensors                       R   N=          18
 -2.20587614E+00  0.00000000E+00  2.72496812E+00  5.88418203E-15  0.00000000E+00
 -5.19091982E-01 -2.00618854E-01 -2.20051404E-16  2.32174306E-01 -2.76762654E-01
 -1.84556994E-16 -3.15554527E-02 -2.00618854E-01  2.20051404E-16  2.32174306E-01
  2.76762654E-01 -1.84556994E-16 -3.15554527E-02
Mulliken Charges                           R   N=           3
 -3.30527623E-01  1.65263812E-01  1.65263812E-01
ONIOM Charges                              I   N=          16
           0           0           0           0           0           0
           0           0           0           0           0           0
           0           0           0           0
ONIOM Multiplicities                       I   N=          16
           1           0           0           0           0           0
           0           0           0           0           0           0
           0           0           0           0
Atom Layers                                I   N=           3
           1           1           1
Atom Modifiers                             I   N=           3
           0           0           0
Force Field                                I                0
Int Atom Modified Types                    I   N=           3
           0           0           0
Link Atoms                                 I   N=           3
           0           0           0
Atom Modified MM Charges                   R   N=           3
  0.00000000E+00  0.00000000E+00  0.00000000E+00
Link Distances                             R   N=          12
  0.00000000E+00  0.00000000E+00  0.00000000E+00  0.00000000E+00  0.00000000E+00
  0.00000000E+00  0.00000000E+00  0.00000000E+00  0.00000000E+00  0.00000000E+00
  0.00000000E+00  0.00000000E+00
Cartesian Gradient                         R   N=           9
 -7.77156117E-16 -1.68212949E-16 -3.62926487E-06  2.63401810E-06  1.04369968E-16
  1.81463244E-06 -2.63401810E-06  6.38429806E-17  1.81463244E-06
Cartesian Force Constants                  R   N=          45
  8.03940681E-01  1.18433845E-16  3.02062158E-06 -2.11549703E-15  5.78332612E-16
  6.34893838E-01 -4.01970340E-01 -4.53092630E-16 -2.16307215E-01  4.38906049E-01
 -4.12354011E-16 -1.51031191E-06 -3.17964588E-16  4.13872090E-16  1.67448970E-06
 -3.37131042E-01 -3.04515891E-16 -3.17446919E-01  2.76719129E-01  3.42647825E-16
  3.00100191E-01 -4.01970340E-01  3.34658785E-16  2.16307215E-01 -3.69357087E-02
 -1.51807927E-18  6.04119139E-02  4.38906049E-01  2.93920166E-16 -1.51031192E-06
 -2.60368024E-16  3.92205400E-17 -1.64177781E-07 -3.81319346E-17 -3.33140706E-16
  1.67448970E-06  3.37131042E-01 -2.73816721E-16 -3.17446919E-01 -6.04119139E-02
 -2.46832375E-17  1.73467278E-02 -2.76719129E-01  2.98499959E-16  3.00100191E-01
Dipole Moment                              R   N=           3
  6.32827124E-15 -7.39009560E-16  6.72452501E-01
Dipole Derivatives                         R   N=          27
 -3.11476187E-02  3.51609291E-17  6.90499710E-16 -3.81137091E-16 -5.59679845E-01
 -2.36696088E-16  1.43582006E-15  2.33511100E-16  8.35328751E-02  1.55738093E-02
 -2.29604557E-16 -1.57062382E-01  5.00014910E-16  2.79839922E-01  3.07705396E-16
 -2.21639847E-01 -1.29402384E-16 -4.17664375E-02  1.55738093E-02  1.94443628E-16
  1.57062382E-01 -1.18877819E-16  2.79839922E-01 -7.10093075E-17  2.21639847E-01
 -1.04108715E-16 -4.17664375E-02
Polarizability                             R   N=           6
  5.50810131E+00  4.29034663E-17  4.00609816E-02 -1.01671312E-14 -2.10341176E-16
  2.56592971E+00
Polarizability Derivatives                 R   N=          54
 -1.79611384E-14  1.03376591E-16 -6.10182560E-17 -2.85608999E+00 -2.20200290E-16
 -8.23005715E-15 -1.29714570E-16 -1.02993020E-15 -2.82145036E-16  9.48588974E-16
 -2.10227163E+00 -6.27740580E-16 -3.14031520E+00 -1.85003908E-16  1.81704324E-02
 -5.08950460E-15  5.76356067E-16 -4.86959048E+00  4.44308494E+00  1.93423764E-17
  3.12648786E-02  1.42804500E+00 -1.50686012E-16  2.08650474E-01 -3.21356549E-16
  1.90847350E+00 -5.19603384E-19 -1.83054209E-16  1.05113581E+00 -7.45987253E-17
  1.57015760E+00 -7.90215180E-18 -9.08521621E-03  2.22458702E+00 -3.26484564E-16
  2.43479524E+00 -4.44308494E+00 -2.94948936E-16 -3.12648786E-02  1.42804500E+00
  3.70886303E-16 -2.08650474E-01  4.51071119E-16 -1.90847350E+00 -6.17952993E-17
 -7.65534765E-16  1.05113581E+00  7.02339305E-16  1.57015760E+00  1.92906060E-16
 -9.08521621E-03 -2.22458702E+00 -4.22101473E-16  2.43479524E+00
HyperPolarizability                        R   N=          10
 -2.58543950E-13 -3.30265226E-15 -2.23300182E-15  3.75792657E-16  7.01242847E+00
  2.46734822E-16 -7.62437947E-02 -8.10897319E-14 -2.12746796E-15  4.11428604E+00
